<VTKFile type="UnstructuredGrid" byte_order="BigEndian">
<UnstructuredGrid><Piece NumberOfPoints="1281" NumberOfCells="1200">
<Points>
 <DataArray type="Float32" NumberOfComponents="3" format="ascii">
 -3.000000026077032089e-03 0.000000000000000000e+00 0.000000000000000000e+00
 -2.950000111013650894e-03 0.000000000000000000e+00 0.000000000000000000e+00
 -2.899999963119626045e-03 0.000000000000000000e+00 0.000000000000000000e+00
 -2.850000048056244850e-03 0.000000000000000000e+00 0.000000000000000000e+00
 -2.799999900162220001e-03 0.000000000000000000e+00 0.000000000000000000e+00
 -2.749999985098838806e-03 0.000000000000000000e+00 0.000000000000000000e+00
 -2.700000070035457611e-03 0.000000000000000000e+00 0.000000000000000000e+00
 -2.649999922141432762e-03 0.000000000000000000e+00 0.000000000000000000e+00
 -2.600000007078051567e-03 0.000000000000000000e+00 0.000000000000000000e+00
 -2.550000092014670372e-03 0.000000000000000000e+00 0.000000000000000000e+00
 -2.499999944120645523e-03 0.000000000000000000e+00 0.000000000000000000e+00
 -2.450000029057264328e-03 0.000000000000000000e+00 0.000000000000000000e+00
 -2.400000113993883133e-03 0.000000000000000000e+00 0.000000000000000000e+00
 -2.349999966099858284e-03 0.000000000000000000e+00 0.000000000000000000e+00
 -2.300000051036477089e-03 0.000000000000000000e+00 0.000000000000000000e+00
 -2.249999903142452240e-03 0.000000000000000000e+00 0.000000000000000000e+00
 -2.199999988079071045e-03 0.000000000000000000e+00 0.000000000000000000e+00
 -2.150000073015689850e-03 0.000000000000000000e+00 0.000000000000000000e+00
 -2.099999925121665001e-03 0.000000000000000000e+00 0.000000000000000000e+00
 -2.050000010058283806e-03 0.000000000000000000e+00 0.000000000000000000e+00
 -2.000000094994902611e-03 0.000000000000000000e+00 0.000000000000000000e+00
 -1.949999947100877762e-03 0.000000000000000000e+00 0.000000000000000000e+00
 -1.900000032037496567e-03 0.000000000000000000e+00 0.000000000000000000e+00
 -1.850000000558793545e-03 0.000000000000000000e+00 0.000000000000000000e+00
 -1.799999969080090523e-03 0.000000000000000000e+00 0.000000000000000000e+00
 -1.750000054016709328e-03 0.000000000000000000e+00 0.000000000000000000e+00
 -1.700000022538006306e-03 0.000000000000000000e+00 0.000000000000000000e+00
 -1.649999991059303284e-03 0.000000000000000000e+00 0.000000000000000000e+00
 -1.599999959580600262e-03 0.000000000000000000e+00 0.000000000000000000e+00
 -1.550000044517219067e-03 0.000000000000000000e+00 0.000000000000000000e+00
 -1.500000013038516045e-03 0.000000000000000000e+00 0.000000000000000000e+00
 -1.449999981559813023e-03 0.000000000000000000e+00 0.000000000000000000e+00
 -1.399999950081110001e-03 0.000000000000000000e+00 0.000000000000000000e+00
 -1.350000035017728806e-03 0.000000000000000000e+00 0.000000000000000000e+00
 -1.300000003539025784e-03 0.000000000000000000e+00 0.000000000000000000e+00
 -1.249999972060322762e-03 0.000000000000000000e+00 0.000000000000000000e+00
 -1.200000056996941566e-03 0.000000000000000000e+00 0.000000000000000000e+00
 -1.150000025518238544e-03 0.000000000000000000e+00 0.000000000000000000e+00
 -1.099999994039535522e-03 0.000000000000000000e+00 0.000000000000000000e+00
 -1.049999962560832500e-03 0.000000000000000000e+00 0.000000000000000000e+00
 -1.000000047497451305e-03 0.000000000000000000e+00 0.000000000000000000e+00
 -9.500000160187482834e-04 0.000000000000000000e+00 0.000000000000000000e+00
 -8.999999845400452614e-04 0.000000000000000000e+00 0.000000000000000000e+00
 -8.500000112690031528e-04 0.000000000000000000e+00 0.000000000000000000e+00
 -7.999999797903001308e-04 0.000000000000000000e+00 0.000000000000000000e+00
 -7.500000065192580223e-04 0.000000000000000000e+00 0.000000000000000000e+00
 -6.999999750405550003e-04 0.000000000000000000e+00 0.000000000000000000e+00
 -6.500000017695128918e-04 0.000000000000000000e+00 0.000000000000000000e+00
 -6.000000284984707832e-04 0.000000000000000000e+00 0.000000000000000000e+00
 -5.499999970197677612e-04 0.000000000000000000e+00 0.000000000000000000e+00
 -5.000000237487256527e-04 0.000000000000000000e+00 0.000000000000000000e+00
 -4.499999922700226307e-04 0.000000000000000000e+00 0.000000000000000000e+00
 -3.999999898951500654e-04 0.000000000000000000e+00 0.000000000000000000e+00
 -3.499999875202775002e-04 0.000000000000000000e+00 0.000000000000000000e+00
 -3.000000142492353916e-04 0.000000000000000000e+00 0.000000000000000000e+00
 -2.500000118743628263e-04 0.000000000000000000e+00 0.000000000000000000e+00
 -1.999999949475750327e-04 0.000000000000000000e+00 0.000000000000000000e+00
 -1.500000071246176958e-04 0.000000000000000000e+00 0.000000000000000000e+00
 -9.999999747378751636e-05 0.000000000000000000e+00 0.000000000000000000e+00
 -4.999999873689375818e-05 0.000000000000000000e+00 0.000000000000000000e+00
 0.000000000000000000e+00 0.000000000000000000e+00 0.000000000000000000e+00
 -2.995762275531888008e-03 2.652753901202231646e-04 0.000000000000000000e+00
 -2.945800777524709702e-03 2.641264291014522314e-04 0.000000000000000000e+00
 -2.895839279517531395e-03 2.629774389788508415e-04 0.000000000000000000e+00
 -2.845877781510353088e-03 2.618284779600799084e-04 0.000000000000000000e+00
 -2.795916283503174782e-03 2.606794878374785185e-04 0.000000000000000000e+00
 -2.745954785495996475e-03 2.595305268187075853e-04 0.000000000000000000e+00
 -2.695993287488818169e-03 2.583815366961061954e-04 0.000000000000000000e+00
 -2.646031789481639862e-03 2.572325756773352623e-04 0.000000000000000000e+00
 -2.596070291474461555e-03 2.560835855547338724e-04 0.000000000000000000e+00
 -2.546108793467283249e-03 2.549346245359629393e-04 0.000000000000000000e+00
 -2.496147295460104942e-03 2.537856344133615494e-04 0.000000000000000000e+00
 -2.446185797452926636e-03 2.526366733945906162e-04 0.000000000000000000e+00
 -2.396224299445748329e-03 2.514876832719892263e-04 0.000000000000000000e+00
 -2.346262801438570023e-03 2.503387222532182932e-04 0.000000000000000000e+00
 -2.296301303431391716e-03 2.491897612344473600e-04 0.000000000000000000e+00
 -2.246339805424213409e-03 2.480407711118459702e-04 0.000000000000000000e+00
 -2.196378307417035103e-03 2.468918100930750370e-04 0.000000000000000000e+00
 -2.146416809409856796e-03 2.457428199704736471e-04 0.000000000000000000e+00
 -2.096455311402678490e-03 2.445938589517027140e-04 0.000000000000000000e+00
 -2.046493813395500183e-03 2.434448833810165524e-04 0.000000000000000000e+00
 -1.996532315388321877e-03 2.422959078103303909e-04 0.000000000000000000e+00
 -1.946570817381143570e-03 2.411469322396442294e-04 0.000000000000000000e+00
 -1.896609319373965263e-03 2.399979566689580679e-04 0.000000000000000000e+00
 -1.846647821366786957e-03 2.388489810982719064e-04 0.000000000000000000e+00
 -1.796686323359608650e-03 2.377000055275857449e-04 0.000000000000000000e+00
 -1.746724825352430344e-03 2.365510299568995833e-04 0.000000000000000000e+00
 -1.696763327345252037e-03 2.354020543862134218e-04 0.000000000000000000e+00
 -1.646801829338073730e-03 2.342530788155272603e-04 0.000000000000000000e+00
 -1.596840331330895424e-03 2.331041032448410988e-04 0.000000000000000000e+00
 -1.546878833323717117e-03 2.319551276741549373e-04 0.000000000000000000e+00
 -1.496917335316538811e-03 2.308061521034687757e-04 0.000000000000000000e+00
 -1.446955837309360504e-03 2.296571765327826142e-04 0.000000000000000000e+00
 -1.396994339302182198e-03 2.285082155140116811e-04 0.000000000000000000e+00
 -1.347032841295003891e-03 2.273592399433255196e-04 0.000000000000000000e+00
 -1.297071343287825584e-03 2.262102643726393580e-04 0.000000000000000000e+00
 -1.247109845280647278e-03 2.250612888019531965e-04 0.000000000000000000e+00
 -1.197148347273468971e-03 2.239123132312670350e-04 0.000000000000000000e+00
 -1.147186849266290665e-03 2.227633376605808735e-04 0.000000000000000000e+00
 -1.097225351259112358e-03 2.216143620898947120e-04 0.000000000000000000e+00
 -1.047263853251934052e-03 2.204653865192085505e-04 0.000000000000000000e+00
 -9.973023552447557449e-04 2.193164109485223889e-04 0.000000000000000000e+00
 -9.473408572375774384e-04 2.181674353778362274e-04 0.000000000000000000e+00
 -8.973793592303991318e-04 2.170184598071500659e-04 0.000000000000000000e+00
 -8.474178612232208252e-04 2.158694842364639044e-04 0.000000000000000000e+00
 -7.974563632160425186e-04 2.147205086657777429e-04 0.000000000000000000e+00
 -7.474948652088642120e-04 2.135715476470068097e-04 0.000000000000000000e+00
 -6.975333672016859055e-04 2.124225720763206482e-04 0.000000000000000000e+00
 -6.475718691945075989e-04 2.112735965056344867e-04 0.000000000000000000e+00
 -5.976103711873292923e-04 2.101246209349483252e-04 0.000000000000000000e+00
 -5.476488731801509857e-04 2.089756453642621636e-04 0.000000000000000000e+00
 -4.976873751729726791e-04 2.078266697935760021e-04 0.000000000000000000e+00
 -4.477258771657943726e-04 2.066776942228898406e-04 0.000000000000000000e+00
 -3.977643791586160660e-04 2.055287186522036791e-04 0.000000000000000000e+00
 -3.478028811514377594e-04 2.043797430815175176e-04 0.000000000000000000e+00
 -2.978413831442594528e-04 2.032307675108313560e-04 0.000000000000000000e+00
 -2.478798851370811462e-04 2.020817919401451945e-04 0.000000000000000000e+00
 -1.979184016818180680e-04 2.009328163694590330e-04 0.000000000000000000e+00
 -1.479569036746397614e-04 1.997838407987728715e-04 0.000000000000000000e+00
 -9.799539839150384068e-05 1.986348797800019383e-04 0.000000000000000000e+00
 -4.803390402230434120e-05 1.974859042093157768e-04 0.000000000000000000e+00
 1.927595121742342599e-06 1.963369286386296153e-04 0.000000000000000000e+00
 -2.983161015436053276e-03 5.359531496651470661e-04 0.000000000000000000e+00
 -2.933313138782978058e-03 5.335638998076319695e-04 0.000000000000000000e+00
 -2.883465262129902840e-03 5.311746499501168728e-04 0.000000000000000000e+00
 -2.833617385476827621e-03 5.287854000926017761e-04 0.000000000000000000e+00
 -2.783769508823752403e-03 5.263961502350866795e-04 0.000000000000000000e+00
[...]
<CellData>
 <DataArray Name="pos.x" type="Float32" NumberOfComponents="1" format="ascii">
 -2.972909002482925899e-03
 -2.922928331483944011e-03
 -2.872947661169708653e-03
 -2.822966991549105513e-03
 -2.772986322631463066e-03
 -2.723005654426019148e-03
 -2.673024986942381959e-03
 -2.623044320190291972e-03
 -2.573063654179444989e-03
 -2.523082988920053761e-03
 -2.473102324422276829e-03
 -2.423121660696551591e-03
 -2.373140997753462027e-03
 -2.323160335603844957e-03
 -2.273179674258677275e-03
 -2.223199013729216470e-03
 -2.173218354026777276e-03
 -2.123237695163098133e-03
 -2.073257037149983835e-03
 -2.023276379999498081e-03
 -1.973295723723958710e-03
 -1.923315068335899967e-03
 -1.873334413848106762e-03
 -1.823353760273597112e-03
 -1.773373107625660951e-03
 -1.723392455917837794e-03
 -1.673411805163898310e-03
 -1.623431155377979412e-03
 -1.573450506574351586e-03
 -1.523469858767724202e-03
 -1.473489211972987692e-03
 -1.423508566205386808e-03
 -1.373527921480441685e-03
 -1.323547277814032417e-03
 -1.273566635222291065e-03
 -1.223585993721767323e-03
 -1.173605353329278253e-03
 -1.123624714062035779e-03
 -1.073644075937571453e-03
 -1.023663438973809519e-03
 -9.736828031890649732e-04
 -9.237021686019893443e-04
 -8.737215352316832391e-04
 -8.237409030976182781e-04
 -7.737602722197012804e-04
 -7.237796426182751316e-04
 -6.737990143140986168e-04
 -6.238183873284129915e-04
 -5.738377616829049011e-04
 -5.238571373997474726e-04
 -4.738765145016059525e-04
 -4.238958930116491991e-04
 -3.739152729535654579e-04
 -3.239346543515786783e-04
 -2.739540372304612539e-04
 -2.239734216155515314e-04
 -1.739928075327693696e-04
 -1.240121950086318871e-04
 -7.403158407027183945e-05
 -2.405097474545610180e-05
 -2.964529587835718506e-03
 -2.914625000363724357e-03
 -2.864720413663928485e-03
 -2.814815827746920077e-03
 -2.764911242623910217e-03
 -2.715006658305999399e-03
 -2.665102074804618151e-03
 -2.615197492131465882e-03
 -2.565292910298309654e-03
 -2.515388329317410493e-03
 -2.465483749200932714e-03
 -2.415579169961546736e-03
 -2.365674591612007549e-03
 -2.315770014165359839e-03
 -2.265865437634978757e-03
 -2.215960862034398182e-03
 -2.166056287377533199e-03
 -2.116151713678432033e-03
 -2.066247140951529317e-03
 -2.016342569211544613e-03
 -1.966437998473494556e-03
 -1.916533428752627798e-03
 -1.866628860064622119e-03
 -1.816724292425358697e-03
 -1.766819725851148052e-03
 -1.716915160358585416e-03
 -1.667010595964635083e-03
 -1.617106032686593114e-03
 -1.567201470542113574e-03
 -1.517296909549310877e-03
 -1.467392349726570275e-03
 -1.417487791092736501e-03
 -1.367583233667063036e-03
 -1.317678677469189333e-03
 -1.267774122519197419e-03
 -1.217869568837629674e-03
 -1.167965016445450446e-03
 -1.118060465364115446e-03
 -1.068155915615534449e-03
 -1.018251367222113577e-03
 -9.683468202068037630e-04
 -9.184422745929985126e-04
 -8.685377304047028207e-04
 -8.186331876664263785e-04
 -7.687286464032554558e-04
 -7.188241066408720915e-04
 -6.689195684055314339e-04
 -6.190150317241272264e-04
 -5.691104966241755441e-04
 -5.192059631338548017e-04
 -4.693014312820103064e-04
 -4.193969010981852120e-04
 -3.694923726126334755e-04
 -3.195878458563484797e-04
 -2.696833208610788625e-04
 -2.197787976593588207e-04
 -1.698742762845261887e-04
 -1.199697567707522949e-04
 -7.006523915306414716e-05
 -2.016072346737447543e-05
 -2.947907874047728770e-03
 -2.898153143410540922e-03
 -2.848398413611734521e-03
 -2.798643684663734525e-03
 -2.748888956579043519e-03
 -2.699134229370637669e-03
 -2.649379503051557325e-03
 -2.599624777635232281e-03
 -2.549870053135397645e-03
 -2.500115329565893909e-03
 -2.450360606940888992e-03
 -2.400605885275105926e-03
 -2.350851164583146746e-03
 -2.301096444880248396e-03
 -2.251341726181851650e-03
 -2.201587008503627131e-03
 -2.151832291861755040e-03
 -2.102077576272589482e-03
 -2.052322861752973321e-03
 -2.002568148320011798e-03
 -1.952813435991217162e-03
 -1.903058724784458585e-03
 -1.853304014718024388e-03
 -1.803549305810563932e-03
 -1.753794598081203412e-03
 -1.704039891549373898e-03
 -1.654285186235069380e-03
 -1.604530482158635345e-03
 -1.554775779340930976e-03
 -1.505021077803223983e-03
 -1.455266377567366459e-03
 -1.405511678655582382e-03
 -1.355756981090704616e-03
 -1.306002284896064973e-03
 -1.256247590095488581e-03
 -1.206492896713455424e-03
 -1.156738204774917546e-03
 -1.106983514305493778e-03
 -1.057228825331365651e-03
 -1.007474137879367168e-03
 -9.577194519769650742e-04
 -9.079647676522921386e-04
 -8.582100849341716591e-04
 -8.084554038521234252e-04
 -7.587007244364127236e-04
 -7.089460467180355935e-04
 -6.591913707287750963e-04
 -6.094366965012048935e-04
 -5.596820240687306637e-04
 -5.099273534655989924e-04
 -4.601726847269391684e-04
 -4.104180178887836751e-04
 -3.606633529880981146e-04
 -3.109086900628158477e-04
 -2.611540291518650450e-04
 -2.113993702952044927e-04
 -1.616447135338562537e-04
 -1.118900589099422737e-04
 -6.213540646672098609e-05
 -1.238075624862595206e-05
 -2.923209823882394563e-03
 -2.873675981487468136e-03
 -2.824142139987868491e-03
 -2.774608299397492931e-03
 -2.725074459730532795e-03
 -2.675540621001501647e-03
 -2.626006783225021471e-03
 -2.576472946416321838e-03
 -2.526939110590752883e-03
 -2.477405275764003011e-03
 -2.427871441952174792e-03
 -2.378337609171655292e-03
 -2.328803777439282605e-03
 -2.279269946772073934e-03
 -2.229736117187624145e-03
 -2.180202288703827779e-03
 -2.130668461338930224e-03
 -2.081134635111640038e-03
 -2.031600810041107701e-03
 -1.982066986146877475e-03
 -1.932533163448895428e-03
 -1.882999341967641922e-03
 -1.833465521724043576e-03
 -1.783931702739458957e-03
 -1.734397885035817138e-03
 -1.684864068635492798e-03
 -1.635330253561436331e-03
 -1.585796439837132204e-03
 -1.536262627486579451e-03
 -1.486728816534388159e-03
 -1.437195007005743043e-03
 -1.387661198926478908e-03
 -1.338127392322983932e-03
 -1.288593587222359050e-03
 -1.239059783652321891e-03
 -1.189525981641332978e-03
 -1.139992181218507693e-03
 -1.090458382413713205e-03
 -1.040924585257584079e-03
 -9.913907897815029801e-04
 -9.418569960176850255e-04
 -8.923232039991541454e-04
 -8.427894137597879715e-04
 -7.932556253343652159e-04
 -7.437218387585600330e-04
 -6.941880540689935198e-04
 -6.446542713032588686e-04
 -5.951204904999544357e-04
 -5.455867116987271094e-04
 -4.960529349402848865e-04
 -4.465191602664538473e-04
 -3.969853877202112781e-04
 -3.474516173457202570e-04
 -2.979178491883802864e-04
 -2.483840832948572708e-04
 -1.988503197131424166e-04
 -1.493165584925900703e-04
 -9.978279968397026198e-05
 -5.024904333951929654e-05
 -7.152895129926581583e-07
 -2.890601442409722159e-03
 -2.841356802061122989e-03
 -2.792112162665838070e-03
 -2.742867524239488587e-03
 -2.693622886797609854e-03
 -2.644378250356596311e-03
 -2.595133614932813339e-03
 -2.545888980543089056e-03
 -2.496644347204762457e-03
 -2.447399714935402388e-03
 -2.398155083752997498e-03
 -2.348910453676005244e-03
 -2.299665824723291178e-03
 -2.250421196914023994e-03
 -2.201176570268058470e-03
 -2.151931944805443673e-03
 -2.102687320546893501e-03
 -2.053442697513523443e-03
 -2.004198075726906086e-03
 -1.954953455209212498e-03
 -1.905708835983083421e-03
 -1.856464218071733575e-03
 -1.807219601498934311e-03
 -1.757974986288980213e-03
 -1.708730372466840024e-03
 -1.659485760058021769e-03
 -1.610241149088710230e-03
 -1.560996539585745701e-03
 -1.511751931576591022e-03
 -1.462507325089460603e-03
 -1.413262720153216773e-03
 -1.364018116797530026e-03
 -1.314773515052750866e-03
 -1.265528914950091958e-03
 -1.216284316521529891e-03
 -1.167039719799876528e-03
 -1.117795124818839712e-03
 -1.068550531612979691e-03
 -1.019305940217807988e-03
 -9.700613506697837191e-04
 -9.208167630063353879e-04
 -8.715721772659265837e-04
 -8.223275934880720306e-04
 -7.730830117133671853e-04
 -7.238384319835498197e-04
 -6.745938543415076110e-04
 -6.253492788313542517e-04
 -5.761047054984404009e-04
 -5.268601343894206875e-04
 -4.776155655522905190e-04
 -4.283709990364316725e-04
 -3.791264348926744730e-04
 -3.298818731733410537e-04
 -2.806373139323028727e-04
 -2.313927572250411573e-04
 -1.821482031087044750e-04
 -1.329036516421728100e-04
 -8.365910288612502768e-05
 -3.441455690310634585e-05
 1.482998624239887815e-05
 -2.850248773027463326e-03
 -2.801358955273144762e-03
 -2.752469138539480678e-03
 -2.703579322843705553e-03
 -2.654689508203537419e-03
 -2.605799694636917220e-03
 -2.556909882162373537e-03
 -2.508020070798722915e-03
 -2.459130260565400763e-03
 -2.410240451482069304e-03
 -2.361350643568991409e-03
 -2.312460836846877508e-03
 -2.263571031336958014e-03
 -2.214681227060944294e-03
 -2.165791424041008714e-03
 -2.116901622299961587e-03
 -2.068011821861161399e-03
 -2.019122022748420266e-03
 -1.970232224986270646e-03
 -1.921342428599798809e-03
 -1.872452633614738512e-03
 -1.823562840057381439e-03
 -1.774673047954792313e-03
 -1.725783257334664693e-03
 -1.676893468225450212e-03
 -1.628003680656250592e-03
 -1.579113894656994583e-03
 -1.530224110258376381e-03
 -1.481334327491844790e-03
 -1.432444546389738740e-03
 -1.383554766985233084e-03
 -1.334664989312399743e-03
 -1.285775213406212909e-03
 -1.236885439302589382e-03
 -1.187995667038472701e-03
 -1.139105896651766139e-03
 -1.090216128181443729e-03
 -1.041326361667580186e-03
 -9.924365971513589291e-04
 -9.435468346751240158e-04
 -8.946570742824313171e-04
 -8.457673160181005583e-04
 -7.968775599282209568e-04
 -7.479878060602353565e-04
 -6.990980544629725370e-04
 -6.502083051867103142e-04
 -6.013185582832069817e-04
 -5.524288138057907582e-04
 -5.035390718093821216e-04
 -4.546493323505830931e-04
 -4.057595954877255386e-04
 -3.568698612809461409e-04
 -3.079801297922491756e-04
 -2.590904010855886929e-04
 -2.102006752269384494e-04
 -1.613109522843748217e-04
 -1.124212323281622422e-04
 -6.353151543084023306e-05
 -1.464180166731681865e-05
 3.424790888503385705e-05
 -2.802317894394930429e-03
 -2.753845850899991517e-03
 -2.705373808508383139e-03
 -2.656901767239429682e-03
 -2.608429727112963371e-03
 -2.559957688149373713e-03
 -2.511485650369312591e-03
 -2.463013613794106695e-03
 -2.414541578445571473e-03
 -2.366069544346014169e-03
 -2.317597511518342240e-03
 -2.269125479985855190e-03
 -2.220653449772732463e-03
 -2.172181420903432358e-03
 -2.123709393403269696e-03
 -2.075237367298066269e-03
 -2.026765342614311304e-03
 -1.978293319379227384e-03
 -1.929821297620671131e-03
 -1.881349277367251605e-03
 -1.832877258648322278e-03
 -1.784405241494009661e-03
 -1.735933225935179904e-03
 -1.687461212003605335e-03
 -1.638989199731844979e-03
 -1.590517189153362954e-03
 -1.542045180302475992e-03
 -1.493573173214526699e-03
 -1.445101167925716152e-03
 -1.396629164473358036e-03
 -1.348157162895717749e-03
 -1.299685163232158552e-03
 -1.251213165523192960e-03
 -1.202741169810407932e-03
 -1.154269176136643550e-03
 -1.105797184545953332e-03
 -1.057325195083646521e-03
 -1.008853207796401490e-03
 -9.603812227322319154e-04
 -9.119092399406017024e-04
 -8.634372594724210818e-04
 -8.149652813801783408e-04
 -7.664933057179129346e-04
 -7.180213325413345319e-04
 -6.695493619078677922e-04
 -6.210773938767183942e-04
 -5.726054285089420990e-04
 -5.241334658675271497e-04
 -4.756615060174540651e-04
 -4.271895490257883931e-04
 -3.787175949617657667e-04
 -3.302456438968718634e-04
 -2.817736959049372734e-04
 -2.333017510622406338e-04
 -1.848298094476035240e-04
 -1.363578711425000238e-04
 -8.788593623116955204e-05
 -3.941400480073529528e-05
 9.057923058671908591e-06
 5.752984725378263255e-05
 -2.746974918061866663e-03
 -2.698980955989050204e-03
 -2.650986995121171804e-03
 -2.602993035480285437e-03
 -2.554999077088684900e-03
 -2.507005119969433777e-03
 -2.459011164146109128e-03
 -2.411017209642870446e-03
 -2.363023256484396775e-03
 -2.315029304696188985e-03
 -2.267035354304193766e-03
 -2.219041405335136271e-03
 -2.171047457816336658e-03
 -2.123053511775914361e-03
 -2.075059567242679235e-03
 -2.027065624246169716e-03
 -1.979071682816730023e-03
 -1.931077742985511016e-03
 -1.883083804784494494e-03
 -1.835089868246448730e-03
 -1.787095933405175464e-03
 -1.739102000295279608e-03
 -1.691108068952333621e-03
 -1.643114139412923686e-03
 -1.595120211714617844e-03
 -1.547126285896070503e-03
 -1.499132361996992303e-03
 -1.451138440058248342e-03
 -1.403144520121839961e-03
 -1.355150602231012516e-03
 -1.307156686430232606e-03
 -1.259162772765299969e-03
 -1.211168861283331644e-03
 -1.163174952032842643e-03
 -1.115181045063840274e-03
 -1.067187140427754317e-03
 -1.019193238177673599e-03
 -9.711993383682152384e-04
 -9.232054410557381232e-04
 -8.752115462983300117e-04
 -8.272176541558900380e-04
 -7.792237646902128471e-04
 -7.312298779650424794e-04
 -6.832359940461878384e-04
 -6.352421130015519640e-04
 -5.872482349012699433e-04
 -5.392543598177650718e-04
 -4.912604878258586836e-04
 -4.432666190028678376e-04
 -3.952727534287071246e-04
 -3.472788911860043510e-04
 -2.992850323602111277e-04
 -2.512911770397264696e-04
 -2.032973253160270076e-04
 -1.553034772837978521e-04
 -1.073096330410784318e-04
 -5.931579268941079207e-05
 -1.132195633399739238e-05
 3.667187591613258927e-05
 8.466570394794706994e-05
 -2.684385986626723099e-03
 -2.636927793006698783e-03
 -2.589469600713731855e-03
 -2.542011409772794526e-03
 -2.494553220209424962e-03
 -2.447095032049746797e-03
 -2.399636845320805238e-03
 -2.352178660050010649e-03
 -2.304720476265676322e-03
 -2.257262293996854970e-03
 -2.209804113273303172e-03
 -2.162345934125578083e-03
 -2.114887756585036131e-03
 -2.067429580683862941e-03
 -2.019971406455186528e-03
 -1.972513233933009206e-03
 -1.925055063152096351e-03
 -1.877596894148402494e-03
 -1.830138726958734779e-03
 -1.782680561620985206e-03
 -1.735222398174052130e-03
 -1.687764236658012649e-03
 -1.640306077114000527e-03
 -1.592847919584374243e-03
 -1.545389764112704628e-03
 -1.497931610743824093e-03
 -1.450473459523884956e-03
 -1.403015310500373754e-03
 -1.355557163722230290e-03
 -1.308099019239820308e-03
 -1.260640877105045216e-03
 -1.213182737371402151e-03
 -1.165724600093960561e-03
 -1.118266465329559095e-03
 -1.070808333136781315e-03
 -1.023350203576026390e-03
 -9.758920767096179467e-04
 -9.284339526018449461e-04
 -8.809758313190959060e-04
 -8.335177129298644311e-04
 -7.860595975049011102e-04
 -7.386014851172683759e-04
 -6.911433758424680076e-04
 -6.436852697585026054e-04
 -5.962271669460201141e-04
 -5.487690674883966566e-04
 -5.013109714718814915e-04
 -4.538528789856900920e-04
 -4.063947901221586986e-04
 -3.589367049768661840e-04
 -3.114786236487869790e-04
 -2.640205462404403140e-04
 -2.165624728580458822e-04
 -1.691044036117009990e-04
 -1.216463386155504421e-04
 -7.418827798797998142e-05
 -2.673022185181308732e-05
 2.072782966547893395e-05
 6.818587643155501435e-05
 1.156439183089699128e-04
 -2.614717272293503626e-03
 -2.567849938370499446e-03
 -2.520982605916163768e-03
 -2.474115274959032794e-03
 -2.427247945528162275e-03
 -2.380380617653544278e-03
 -2.333513291365872568e-03
 -2.286645966696650156e-03
 -2.239778643678260427e-03
 -2.192911322343929839e-03
 -2.146044002727774767e-03
 -2.099176684864931166e-03
 -2.052309368791334701e-03
 -2.005442054544007407e-03
 -1.958574742161066796e-03
 -1.911707431681504031e-03
 -1.864840123145623894e-03
 -1.817972816594735138e-03
 -1.771105512071384893e-03
 -1.724238209619282551e-03
 -1.677370909283498832e-03
 -1.630503611110349768e-03
 -1.583636315147529412e-03
 -1.536769021444168819e-03
 -1.489901730050806339e-03
 -1.443034441019585157e-03
 -1.396167154404150080e-03
 -1.349299870259822523e-03
 -1.302432588643631520e-03
 -1.255565309614355574e-03
 -1.208698033232614164e-03
 -1.161830759560935613e-03
 -1.114963488663837541e-03
 -1.068096220607891262e-03
 -1.021228955461840615e-03
 -9.743616932966334045e-04
 -9.274944341855611554e-04
 -8.806271782043333801e-04
 -8.337599254311816623e-04
 -7.868926759469692693e-04
 -7.400254298353015243e-04
 -6.931581871826353108e-04
 -6.462909480784144890e-04
 -5.994237126151929530e-04
 -5.525564808887649523e-04
 -5.056892529983231677e-04
 -4.588220290465977068e-04
 -4.119548091400202514e-04
 -3.650875933888959586e-04
 -3.182203819075706441e-04
 -2.713531748146306012e-04
 -2.244859722330901672e-04
 -1.776187742906064500e-04
 -1.307515811196992316e-04
 -8.388439285798336633e-05
 -3.701720964841723286e-05
 9.849968360435629180e-06
 5.671714101412936163e-05
 1.035843081520410237e-04
 1.504514696070594971e-04
 -2.538134975724480429e-03
 -2.491911021262873706e-03
 -2.445687068428313571e-03
 -2.399463117253287057e-03
 -2.353239167770886184e-03
 -2.307015220015260284e-03
 -2.260791274021530569e-03
 -2.214567329825515175e-03
 -2.168343387464406139e-03
 -2.122119446976044720e-03
 -2.075895508399586229e-03
 -2.029671571775133569e-03
 -1.983447637143954077e-03
 -1.937223704548592064e-03
 -1.890999774032616192e-03
 -1.844775845641021721e-03
 -1.798551919420019515e-03
 -1.752327995417200411e-03
 -1.706104073681554301e-03
 -1.659880154263508947e-03
 -1.613656237215024304e-03
 -1.567432322589614206e-03
 -1.521208410442368916e-03
 -1.474984500830187799e-03
 -1.428760593811564646e-03
 -1.382536689446928983e-03
 -1.336312787798565405e-03
 -1.290088888930686220e-03
 -1.243864992909593211e-03
 -1.197641099803688474e-03
 -1.151417209683600843e-03
 -1.105193322622230988e-03
 -1.058969438694894096e-03
 -1.012745557979407912e-03
 -9.665216805561473775e-04
 -9.202978065082354549e-04
 -8.740739359215931063e-04
 -8.278500688850970457e-04
 -7.816262054906670175e-04
 -7.354023458334595434e-04
 -6.891784900119507550e-04
 -6.429546381281076983e-04
 -5.967307902875548667e-04
 -5.505069465997236046e-04
 -5.042831071780285064e-04
 -4.580592721400559598e-04
 -4.118354416077477011e-04
 -3.656116157076161376e-04
 -3.193877945709539239e-04
 -2.731639783340595305e-04
 -2.269401671384846310e-04
 -1.807163611312851770e-04
 -1.344925604652932882e-04
 -8.826876529940237085e-05
 -4.204497579887203596e-05
 4.178807864350401711e-06
 5.040258551128866003e-05
 9.662635695557400561e-05
 1.428501220030595675e-04
 1.890738804514106961e-04
 -2.454805325105179330e-03
 -2.409274722644630211e-03
 -2.363744121981656635e-03
 -2.318213523153022596e-03
 -2.272682926196296568e-03
 -2.227152331150179364e-03
 -2.181621738054537966e-03
 -2.136091146950105848e-03
 -2.090560557879029852e-03
 -2.045029970884519772e-03
 -1.999499386010923380e-03
 -1.953968803304120642e-03
 -1.908438222811106953e-03
 -1.862907644580300611e-03
 -1.817377068661605926e-03
 -1.771846495106277689e-03
 -1.726315923967266163e-03
 -1.680785355298940404e-03
 -1.635254789157452107e-03
 -1.589724225600607247e-03
 -1.544193664687972325e-03
 -1.498663106480993849e-03
 -1.453132551043011559e-03
 -1.407601998439386584e-03
 -1.362071448737520087e-03
 -1.316540902006999199e-03
 -1.271010358319607427e-03
 -1.225479817749535643e-03
 -1.179949280373320062e-03
 -1.134418746270100288e-03
 -1.088888215521571171e-03
 -1.043357688212249957e-03
 -9.978271644294689144e-04
 -9.522966442635459865e-04
 -9.067661278079283422e-04
 -8.612356151593041553e-04
 -8.157051064177319507e-04
 -7.701746016868310984e-04
 -7.246441010739112674e-04
 -6.791136046901336465e-04
 -6.335831126507127141e-04
 -5.880526250750750744e-04
 -5.425221420870663227e-04
 -4.969916638151674520e-04
 -4.514611903926878957e-04
 -4.059307219580165745e-04
 -3.604002586548565173e-04
 -3.148698006324861546e-04
 -2.693393480460291216e-04
 -2.238089010567458547e-04
 -1.782784598323383337e-04
 -1.327480245472764805e-04
 -8.721759538314174313e-05
 -4.168717252899356953e-05
 3.843243818241109862e-06
 4.937365345335539390e-05
 9.490405616242129634e-05
 1.404344517223227325e-04
 1.859648399002557597e-04
 2.314952204531973826e-04
 -2.364894575355289217e-03
 -2.320104774401369769e-03
 -2.275314975421790283e-03
 -2.230525178457833275e-03
 -2.185735383551813855e-03
 -2.140945590747198122e-03
 -2.096155800088852095e-03
 -2.051366011622722096e-03
 -2.006576225396294877e-03
 -1.961786441458190401e-03
 -1.916996659858715866e-03
 -1.872206880649439180e-03
 -1.827417103883569732e-03
 -1.782627329615891825e-03
 -1.737837557902797633e-03
 -1.693047788802464143e-03
 -1.648258022374789406e-03
 -1.603468258681543454e-03