<VTKFile type="UnstructuredGrid" byte_order="BigEndian">
<UnstructuredGrid><Piece NumberOfPoints="1281" NumberOfCells="1200">
<Points>
 <DataArray type="Float32" NumberOfComponents="3" format="ascii">
 -1.517187454737722874e-03 6.078124977648258209e-03 0.000000000000000000e+00
 -1.479214290156960487e-03 6.040603388100862503e-03 0.000000000000000000e+00
 -1.441241125576198101e-03 6.003081798553466797e-03 0.000000000000000000e+00
 -1.403267844580113888e-03 5.965560674667358398e-03 0.000000000000000000e+00
 -1.365294679999351501e-03 5.928039085119962692e-03 0.000000000000000000e+00
 -1.327321515418589115e-03 5.890517495572566986e-03 0.000000000000000000e+00
 -1.289348234422504902e-03 5.852995906025171280e-03 0.000000000000000000e+00
 -1.251375069841742516e-03 5.815474316477775574e-03 0.000000000000000000e+00
 -1.213401905260980129e-03 5.777952726930379868e-03 0.000000000000000000e+00
 -1.175428624264895916e-03 5.740431603044271469e-03 0.000000000000000000e+00
 -1.137455459684133530e-03 5.702910013496875763e-03 0.000000000000000000e+00
 -1.099482295103371143e-03 5.665388423949480057e-03 0.000000000000000000e+00
 -1.061509014107286930e-03 5.627866834402084351e-03 0.000000000000000000e+00
 -1.023535849526524544e-03 5.590345244854688644e-03 0.000000000000000000e+00
 -9.855626849457621574e-04 5.552823655307292938e-03 0.000000000000000000e+00
 -9.475894621573388577e-04 5.515302531421184540e-03 0.000000000000000000e+00
 -9.096162393689155579e-04 5.477780941873788834e-03 0.000000000000000000e+00
 -8.716430747881531715e-04 5.440259352326393127e-03 0.000000000000000000e+00
 -8.336698519997298717e-04 5.402737762778997421e-03 0.000000000000000000e+00
 -7.956966292113065720e-04 5.365216173231601715e-03 0.000000000000000000e+00
 -7.577234646305441856e-04 5.327694583684206009e-03 0.000000000000000000e+00
 -7.197502418421208858e-04 5.290173459798097610e-03 0.000000000000000000e+00
 -6.817770190536975861e-04 5.252651870250701904e-03 0.000000000000000000e+00
 -6.438038544729351997e-04 5.215130280703306198e-03 0.000000000000000000e+00
 -6.058306316845118999e-04 5.177608691155910492e-03 0.000000000000000000e+00
 -5.678574088960886002e-04 5.140087101608514786e-03 0.000000000000000000e+00
 -5.298842443153262138e-04 5.102565512061119080e-03 0.000000000000000000e+00
 -4.919110215269029140e-04 5.065044388175010681e-03 0.000000000000000000e+00
 -4.539378278423100710e-04 5.027522798627614975e-03 0.000000000000000000e+00
 -4.159646050538867712e-04 4.990001209080219269e-03 0.000000000000000000e+00
 -3.779914113692939281e-04 4.952479619532823563e-03 0.000000000000000000e+00
 -3.400182176847010851e-04 4.914958029985427856e-03 0.000000000000000000e+00
 -3.020449948962777853e-04 4.877436440438032150e-03 0.000000000000000000e+00
 -2.640718012116849422e-04 4.839915316551923752e-03 0.000000000000000000e+00
 -2.260986075270920992e-04 4.802393727004528046e-03 0.000000000000000000e+00
 -1.881253992905840278e-04 4.764872137457132339e-03 0.000000000000000000e+00
 -1.501521910540759563e-04 4.727350547909736633e-03 0.000000000000000000e+00
 -1.121789900935254991e-04 4.689828958362340927e-03 0.000000000000000000e+00
 -7.420578913297504187e-05 4.652307368814945221e-03 0.000000000000000000e+00
 -3.623258453444577754e-05 4.614786244928836823e-03 0.000000000000000000e+00
 1.740616539791517425e-06 4.577264655381441116e-03 0.000000000000000000e+00
 3.971382102463394403e-05 4.539743065834045410e-03 0.000000000000000000e+00
 7.768702198518440127e-05 4.502221476286649704e-03 0.000000000000000000e+00
 1.156602229457348585e-04 4.464699886739253998e-03 0.000000000000000000e+00
 1.536334311822429299e-04 4.427178297191858292e-03 0.000000000000000000e+00
 1.916066248668357730e-04 4.389657173305749893e-03 0.000000000000000000e+00
 2.295798331033438444e-04 4.352135583758354187e-03 0.000000000000000000e+00
 2.675530267879366875e-04 4.314613994210958481e-03 0.000000000000000000e+00
 3.055262495763599873e-04 4.277092404663562775e-03 0.000000000000000000e+00
 3.434994432609528303e-04 4.239570815116167068e-03 0.000000000000000000e+00
 3.814726369455456734e-04 4.202049225568771362e-03 0.000000000000000000e+00
 4.194458597339689732e-04 4.164528101682662964e-03 0.000000000000000000e+00
 4.574190534185618162e-04 4.127006512135267258e-03 0.000000000000000000e+00
 4.953922471031546593e-04 4.089484922587871552e-03 0.000000000000000000e+00
 5.333654698915779591e-04 4.051963333040475845e-03 0.000000000000000000e+00
 5.713386344723403454e-04 4.014441743493080139e-03 0.000000000000000000e+00
 6.093118572607636452e-04 3.976920153945684433e-03 0.000000000000000000e+00
 6.472850800491869450e-04 3.939399030059576035e-03 0.000000000000000000e+00
 6.852582446299493313e-04 3.901877440512180328e-03 0.000000000000000000e+00
 7.232314674183726311e-04 3.864355850964784622e-03 0.000000000000000000e+00
 7.612046902067959309e-04 3.826834261417388916e-03 0.000000000000000000e+00
 -1.377516193315386772e-03 6.409142632037401199e-03 0.000000000000000000e+00
 -1.340588903985917568e-03 6.369114853441715240e-03 0.000000000000000000e+00
 -1.303661614656448364e-03 6.329087540507316589e-03 0.000000000000000000e+00
 -1.266734325326979160e-03 6.289059761911630630e-03 0.000000000000000000e+00
 -1.229807152412831783e-03 6.249032448977231979e-03 0.000000000000000000e+00
 -1.192879863083362579e-03 6.209004670381546021e-03 0.000000000000000000e+00
 -1.155952573753893375e-03 6.168977357447147369e-03 0.000000000000000000e+00
 -1.119025284424424171e-03 6.128949578851461411e-03 0.000000000000000000e+00
 -1.082097995094954967e-03 6.088921800255775452e-03 0.000000000000000000e+00
 -1.045170705765485764e-03 6.048894487321376801e-03 0.000000000000000000e+00
 -1.008243416436016560e-03 6.008866708725690842e-03 0.000000000000000000e+00
 -9.713161853142082691e-04 5.968839395791292191e-03 0.000000000000000000e+00
 -9.343888959847390652e-04 5.928811617195606232e-03 0.000000000000000000e+00
 -8.974616066552698612e-04 5.888784304261207581e-03 0.000000000000000000e+00
 -8.605343173258006573e-04 5.848756525665521622e-03 0.000000000000000000e+00
 -8.236070279963314533e-04 5.808729212731122971e-03 0.000000000000000000e+00
 -7.866797968745231628e-04 5.768701434135437012e-03 0.000000000000000000e+00
 -7.497525075450539589e-04 5.728673655539751053e-03 0.000000000000000000e+00
 -7.128252182155847549e-04 5.688646342605352402e-03 0.000000000000000000e+00
 -6.758979288861155510e-04 5.648618564009666443e-03 0.000000000000000000e+00
 -6.389706395566463470e-04 5.608591251075267792e-03 0.000000000000000000e+00
 -6.020434084348380566e-04 5.568563472479581833e-03 0.000000000000000000e+00
 -5.651161191053688526e-04 5.528536159545183182e-03 0.000000000000000000e+00
 -5.281888297758996487e-04 5.488508380949497223e-03 0.000000000000000000e+00
 -4.912615404464304447e-04 5.448481068015098572e-03 0.000000000000000000e+00
 -4.543342802207916975e-04 5.408453289419412613e-03 0.000000000000000000e+00
 -4.174069908913224936e-04 5.368425510823726654e-03 0.000000000000000000e+00
 -3.804797306656837463e-04 5.328398197889328003e-03 0.000000000000000000e+00
 -3.435524413362145424e-04 5.288370419293642044e-03 0.000000000000000000e+00
 -3.066251811105757952e-04 5.248343106359243393e-03 0.000000000000000000e+00
 -2.696978917811065912e-04 5.208315327763557434e-03 0.000000000000000000e+00
 -2.327706170035526156e-04 5.168288014829158783e-03 0.000000000000000000e+00
 -1.958433422259986401e-04 5.128260236233472824e-03 0.000000000000000000e+00
 -1.589160528965294361e-04 5.088232923299074173e-03 0.000000000000000000e+00
 -1.219887781189754605e-04 5.048205144703388214e-03 0.000000000000000000e+00
 -8.506150334142148495e-05 5.008177831768989563e-03 0.000000000000000000e+00
 -4.813422856386750937e-05 4.968150053173303604e-03 0.000000000000000000e+00
 -1.120695014833472669e-05 4.928122274577617645e-03 0.000000000000000000e+00
 2.572032826719805598e-05 4.888094961643218994e-03 0.000000000000000000e+00
 6.264760304475203156e-05 4.848067183047533035e-03 0.000000000000000000e+00
 9.957488509826362133e-05 4.808039870113134384e-03 0.000000000000000000e+00
 1.365021598758175969e-04 4.768012091517448425e-03 0.000000000000000000e+00
 1.734294346533715725e-04 4.727984778583049774e-03 0.000000000000000000e+00
 2.103567094309255481e-04 4.687956999987363815e-03 0.000000000000000000e+00
 2.472839842084795237e-04 4.647929687052965164e-03 0.000000000000000000e+00
 2.842112735379487276e-04 4.607901908457279205e-03 0.000000000000000000e+00
 3.211385337635874748e-04 4.567874129861593246e-03 0.000000000000000000e+00
 3.580658230930566788e-04 4.527846816927194595e-03 0.000000000000000000e+00
 3.949931124225258827e-04 4.487819038331508636e-03 0.000000000000000000e+00
 4.319203726481646299e-04 4.447791725397109985e-03 0.000000000000000000e+00
 4.688476619776338339e-04 4.407763946801424026e-03 0.000000000000000000e+00
 5.057749222032725811e-04 4.367736633867025375e-03 0.000000000000000000e+00
 5.427022115327417850e-04 4.327708855271339417e-03 0.000000000000000000e+00
 5.796295008622109890e-04 4.287681542336940765e-03 0.000000000000000000e+00
 6.165567901916801929e-04 4.247653763741254807e-03 0.000000000000000000e+00
 6.534840213134884834e-04 4.207625985145568848e-03 0.000000000000000000e+00
 6.904113106429576874e-04 4.167598672211170197e-03 0.000000000000000000e+00
 7.273385999724268913e-04 4.127570893615484238e-03 0.000000000000000000e+00
 7.642658893018960953e-04 4.087543580681085587e-03 0.000000000000000000e+00
 8.011931786313652992e-04 4.047515802085399628e-03 0.000000000000000000e+00
 8.381204097531735897e-04 4.007488489151000977e-03 0.000000000000000000e+00
 -1.232832786627113819e-03 6.741109304130077362e-03 0.000000000000000000e+00
 -1.196976169012486935e-03 6.698534358292818069e-03 0.000000000000000000e+00
 -1.161119434982538223e-03 6.655958946794271469e-03 0.000000000000000000e+00
 -1.125262700952589512e-03 6.613384000957012177e-03 0.000000000000000000e+00
 -1.089406083337962627e-03 6.570808589458465576e-03 0.000000000000000000e+00
[...]
<CellData>
 <DataArray Name="pos.x" type="Float32" NumberOfComponents="1" format="ascii">
 -1.428647887507150573e-03
 -1.391197827651821694e-03
 -1.353747770569325992e-03
 -1.316297716324089364e-03
 -1.278847664982607447e-03
 -1.241397616613477278e-03
 -1.203947571287441965e-03
 -1.166497529077522959e-03
 -1.129047490059095727e-03
 -1.091597454309989942e-03
 -1.054147421910576208e-03
 -1.016697392943890534e-03
 -9.792473674957269218e-04
 -9.417973456547788563e-04
 -9.043473275127360137e-04
 -8.668973131644115487e-04
 -8.294473027079101455e-04
 -7.919972962447279809e-04
 -7.545472938799307507e-04
 -7.170972957223001451e-04
 -6.796473018845052613e-04
 -6.421973124832729314e-04
 -6.047473276395692182e-04
 -5.672973474788088827e-04
 -5.298473721310344945e-04
 -4.923974017311662319e-04
 -4.549474364192015378e-04
 -4.174974763404784182e-04
 -3.800475216459167313e-04
 -3.425975724922995921e-04
 -3.051476290425567833e-04
 -2.676976914660678434e-04
 -2.302477599389874362e-04
 -1.927978346445836488e-04
 -1.553479157736056175e-04
 -1.178980035246646928e-04
 -8.044809810464569034e-05
 -4.299819972914252389e-05
 -5.548308622920497842e-06
 3.190157497958945153e-05
 6.935145083376793515e-05
 1.068013186842451539e-04
 1.442511782643045477e-04
 1.817010292952456597e-04
 2.191508714857045789e-04
 2.566007045309226997e-04
 2.940505281119732794e-04
 3.315003418949242445e-04
 3.689501455299470847e-04
 4.063999386503588246e-04
 4.438497208715964774e-04
 4.812994917901081224e-04
 5.187492509821761124e-04
 5.561989980026316432e-04
 5.936487323834830753e-04
 6.310984536324394135e-04
 6.685481612313113253e-04
 7.059978546342597205e-04
 7.434475332659868686e-04
 7.808971965196505024e-04
 -1.286992792899808785e-03
 -1.250600987385409694e-03
 -1.214209184583212595e-03
 -1.177817384556624882e-03
 -1.141425587371035439e-03
 -1.105033793093862342e-03
 -1.068642001794726550e-03
 -1.032250213545445614e-03
 -9.958584284201997799e-04
 -9.594666464955822933e-04
 -9.230748678506930753e-04
 -8.866830925672794517e-04
 -8.502913207298322135e-04
 -8.138995524256829785e-04
 -7.775077877451491487e-04
 -7.411160267816443905e-04
 -7.047242696318276045e-04
 -6.683325163957438714e-04
 -6.319407671769518460e-04
 -5.955490220827163112e-04
 -5.591572812241351383e-04
 -5.227655447163482129e-04
 -4.863738126786968665e-04
 -4.499820852349349708e-04
 -4.135903625134216004e-04
 -3.771986446473408008e-04
 -3.408069317749420099e-04
 -3.044152240397637833e-04
 -2.680235215909060375e-04
 -2.316318245832876290e-04
 -1.952401331779473020e-04
 -1.588484475423384288e-04
 -1.224567678506563299e-04
 -8.606509428417921561e-05
 -4.967342703163224720e-05
 -1.328176628957528322e-05
 2.310988773718805942e-05
 5.950153483517323826e-05
 9.589317478174918478e-05
 1.322848073446438659e-04
 1.686764322814164553e-04
 2.050680493388953916e-04
 2.414596582525756771e-04
 2.778512587459811499e-04
 3.142428505299751755e-04
 3.506344333020332553e-04
 3.870260067454529959e-04
 4.234175705285173757e-04
 4.598091243035916592e-04
 4.962006677061623055e-04
 5.325922003537966222e-04
 5.689837218450189901e-04
 6.053752317581326606e-04
 6.417667296499052687e-04
 6.781582150541976429e-04
 7.145496874804458136e-04
 7.509411464120601884e-04
 7.873325913046551588e-04
 8.237240215841729963e-04
 8.601154366448176885e-04
 -1.140420467026772135e-03
 -1.105110442560351940e-03
 -1.069800420702489213e-03
 -1.034490401514348134e-03
 -9.991803850590240659e-04
 -9.638703714016152177e-04
 -9.285603606093101401e-04
 -8.932503527514577650e-04
 -8.579403478996559850e-04
 -8.226303461278779627e-04
 -7.873203475125163664e-04
 -7.520103521325269182e-04
 -7.167003600695077579e-04
 -6.813903714078436416e-04
 -6.460803862347896422e-04
 -6.107704046406142642e-04
 -5.754604267187319331e-04
 -5.401504525658348344e-04
 -5.048404822820406904e-04
 -4.695305159710391274e-04
 -4.342205537402649856e-04
 -3.989105957010586180e-04
 -3.636006419688511270e-04
 -3.282906926633479190e-04
 -2.929807479087358961e-04
 -2.576708078338857681e-04
 -2.223608725725855352e-04
 -1.870509422637704473e-04
 -1.517410170517735906e-04
 -1.164310970865908390e-04
 -8.112118252416415654e-05
 -4.581127352667679832e-05
 -1.050137026286743444e-05
 2.480852709163165688e-05
 6.011841835394302318e-05
 9.542830333356335404e-05
 1.307381818319624449e-04
 1.660480536421574409e-04
 2.013579185482569233e-04
 2.366677763249758237e-04
 2.719776267371212006e-04
 3.072874695390376428e-04
 3.425973044740238333e-04
 3.779071312737005946e-04
 4.132169496573413672e-04
 4.485267593311521904e-04
 4.838365599875047926e-04
 5.191463513041121632e-04
 5.544561329431389653e-04
 5.897659045502616406e-04
 6.250756657536473077e-04
 6.603854161628529718e-04
 6.956951553676519844e-04
 7.310048829367718146e-04
 7.663145984164990068e-04
 8.016243013292443471e-04
 8.369339911719102720e-04
 8.722436674141817317e-04
 9.075533294966786017e-04
 9.428629768288912527e-04
 -9.890974111382410533e-04
 -9.548904297226541759e-04
 -9.206834507708667537e-04
 -8.864764743407623892e-04
 -8.522695004920215331e-04
 -8.180625292862328318e-04
 -7.838555607869749850e-04
 -7.496485950598614145e-04
 -7.154416321726515034e-04
 -6.812346721953352726e-04
 -6.470277152002107922e-04
 -6.128207612620068055e-04
 -5.786138104579574299e-04
 -5.444068628679239134e-04
 -5.101999185745089089e-04
 -4.759929776631608832e-04
 -4.417860402223147925e-04
 -4.075791063435128076e-04
 -3.733721761215466162e-04
 -3.391652496545989105e-04
 -3.049583270444017899e-04
 -2.707514083963938074e-04
 -2.365444938198933060e-04
 -2.023375834282772315e-04
 -1.681306773391706233e-04
 -1.339237756746508514e-04
 -9.971687856145269283e-05
 -6.550998613120424102e-05
 -3.130309852065422190e-05
 2.903784128070491423e-06
 3.711066166720070725e-05
 7.131753394303808036e-05
 1.055244007956597507e-04
 1.397312620585968628e-04
 1.739381175584961956e-04
 2.081449671147628981e-04
 2.423518105391764916e-04
 2.765586476354823966e-04
 3.107654781989637816e-04
 3.449723020159744884e-04
 3.791791188634524969e-04
 4.133859285083898039e-04
 4.475927307072767158e-04
 4.817995252055007663e-04
 5.160063117367050863e-04
 5.502130900221116443e-04
 5.844198597697734723e-04
 6.186266206738061293e-04
 6.528333724135310188e-04
 6.870401146525719231e-04
 7.212468470379020981e-04
 7.554535691987648415e-04
 7.896602807455813762e-04
 8.238669812687193046e-04
 8.580736703371951444e-04
 8.922803474972674674e-04
 9.264870122708932128e-04
 9.606936641541177551e-04
 9.949003026152557216e-04
 1.029106927092977158e-03
 -8.331901434536201139e-04
 -8.001052248472218529e-04
 -7.670203085222593743e-04
 -7.339353945323228399e-04
 -7.008504829326726252e-04
 -6.677655737803415590e-04
 -6.346806671341741722e-04
 -6.015957630549319734e-04
 -5.685108616053462498e-04
 -5.354259628502207411e-04
 -5.023410668564932220e-04
 -4.692561736933444647e-04
 -4.361712834322850293e-04
 -4.030863961472535466e-04
 -3.700015119147231327e-04
 -3.369166308138089416e-04
 -3.038317529263827657e-04
 -2.707468783371966346e-04
 -2.376620071340100192e-04
 -2.045771394077221044e-04
 -1.714922752525170721e-04
 -1.384074147660094116e-04
 -1.053225580494061565e-04
 -7.223770520767080301e-05
 -3.915285634969899777e-05
 -6.068011588506193951e-06
 2.701682895857520107e-05
 6.010166516969208544e-05
 9.318649691824447965e-05
 1.262713240726587749e-04
 1.593561464961332956e-04
 1.924409640463846805e-04
 2.255257765753644454e-04
 2.586105839289645813e-04
 2.916953859467088009e-04
 3.247801824614121808e-04
 3.578649732988373601e-04
 3.909497582773072914e-04
 4.240345372073133553e-04
 4.571193098910846615e-04
 4.902040761221299189e-04
 5.232888356847601157e-04
 5.563735883535593204e-04
 5.894583338928409541e-04
 6.225430720560482271e-04
 6.556278025851206394e-04
 6.887125252098268710e-04
 7.217972396470157068e-04
 7.548819455998624075e-04
 7.879666427570076364e-04
 8.210513307916703649e-04
 8.541360093606905225e-04
 8.872206781034602981e-04
 9.203053366408277952e-04
 9.533899845738882549e-04
 9.864746214826535225e-04
 1.019559246924683568e-03
 1.052643860433521549e-03
 1.085728461517071301e-03
 1.118813049655808297e-03
 -6.728651980644489864e-04
 -6.409191420199012584e-04
 -6.089730880415582682e-04
 -5.770270361778583740e-04
 -5.450809864787555404e-04
 -5.131349389957957745e-04
 -4.811888937821800095e-04
 -4.492428508928147913e-04
 -4.172968103843997735e-04
 -3.853507723154907640e-04
 -3.534047367465824492e-04
 -3.214587037401838007e-04
 -2.895126733609031848e-04
 -2.575666456755461037e-04
 -2.256206207531968899e-04
 -1.936745986653229520e-04
 -1.617285794858830329e-04
 -1.297825632914232426e-04
 -9.783655016120586137e-05
 -6.589054017732078234e-05
 -3.394453342482004745e-05
 -1.998529991846711561e-06
 2.994747003022135164e-05
 6.189346654661817733e-05
 9.383945945903922228e-05
 1.257854486654660291e-04
 1.577314340599958301e-04
 1.896774155326478889e-04
 2.216233929691737510e-04
 2.535693662508417589e-04
 2.855153352542181243e-04
 3.174612998509304912e-04
 3.494072599074167528e-04
 3.813532152846646809e-04
 4.132991658379287859e-04
 4.452451114164298848e-04
 4.771910518630403030e-04
 5.091369870139399656e-04
 5.410829166982718914e-04
 5.730288407377365396e-04
 6.049747589462048034e-04
 6.369206711292673068e-04
 6.688665770837803415e-04
 7.008124765973625797e-04
 7.327583694478589363e-04
 7.647042554028005276e-04
 7.966501342187410316e-04
 8.285960056406776152e-04
 8.605418694012872223e-04
 8.924877252202193488e-04
 9.244335728032686880e-04
 9.563794118415160084e-04
 9.883252420103978003e-04
 1.020271062968706316e-03
 1.052216874357500597e-03
 1.084162675798941173e-03
 1.116108466895041930e-03
 1.148054247226287967e-03
 1.180000016350170843e-03
 1.211945773799603899e-03
 -5.082891238266899888e-04
 -4.774965320986670450e-04
 -4.467039421945144745e-04
 -4.159113541568344838e-04
 -3.851187680295726059e-04
 -3.543261838580580325e-04
 -3.235336016890670401e-04
 -2.927410215708841929e-04
 -2.619484435533526502e-04
 -2.311558676879478915e-04
 -2.003632940278392998e-04
 -1.695707226279642937e-04
 -1.387781535450974453e-04
 -1.079855868379331368e-04
 -7.719302256716373191e-05
 -4.640046079556762646e-05
 -1.560790158809687890e-05
 1.518465498801928212e-05
 4.597720886319214655e-05
 7.676975996534886673e-05
 1.075623082198308135e-04
 1.383548535492753237e-04
 1.691473958734941133e-04
 1.999399351093379695e-04
 2.307324711705621332e-04
 2.615250039676817882e-04
 2.923175334078165601e-04
 3.231100593945275328e-04
 3.539025818276460809e-04
 3.846951006030932953e-04
 4.154876156126849351e-04
 4.462801267439273816e-04
 4.770726338798021520e-04
 5.078651368985356157e-04
 5.386576356733531511e-04
 5.694501300722222981e-04
 6.002426199575768831e-04
 6.310351051860216276e-04
 6.618275856080257534e-04
 6.926200610675844940e-04
 7.234125314018668377e-04
 7.542049964408376831e-04
 7.849974560068652494e-04
 8.157899099142747103e-04
 8.465823579688971662e-04
 8.773747999675798014e-04
 9.081672356976606963e-04
 9.389596649363910570e-04
 9.697520874503539733e-04
 1.000544502994801105e-03
 1.031336911312964212e-03
 1.062129312135299793e-03
 1.092921705178694037e-03
 1.123714090145593730e-03
 1.154506466723075140e-03
 1.185298834581833324e-03
 1.216091193375097275e-03
 1.246883542737475684e-03
 1.277675882283660228e-03
 1.308468211607048204e-03
 -3.396284832571169624e-04
 -3.100017813693677700e-04
 -2.803750810426004986e-04
 -2.507483823130912518e-04
 -2.211216852182477694e-04
 -1.914949897966575112e-04
 -1.618682960881308091e-04
 -1.322416041337514986e-04
 -1.026149139759263994e-04
 -7.298822565844233072e-05
 -4.336153922651998972e-05
 -1.373485472687277923e-05
 1.589182779223076233e-05
 4.551850828089514954e-05
 7.514518668754252692e-05
 1.047718629588287754e-04
 1.343985370395713789e-04
 1.640252088726720228e-04
 1.936518783990292473e-04
 2.232785455574522540e-04
 2.529052102845651432e-04
 2.825318725147107999e-04
 3.121585321798475959e-04
 3.417851892094370667e-04
 3.714118435303315614e-04
 4.010384950666521608e-04
 4.306651437396570559e-04
 4.602917894676087870e-04
 4.899184321656277138e-04
 5.195450717455430464e-04
 5.491717081157268532e-04
 5.787983411809262272e-04
 6.084249708420850968e-04
 6.380515969961401794e-04
 6.676782195358374255e-04
 6.973048383494962052e-04
 7.269314533207844441e-04
 7.565580643284863880e-04
 7.861846712462209263e-04
 8.158112739421925514e-04
 8.454378722788610020e-04
 8.750644661126627316e-04
 9.046910552936599523e-04
 9.343176396651648504e-04
 9.639442190633940510e-04
 9.935707933170371056e-04
 1.023197362246823028e-03
 1.052823925665046173e-03
 1.082450483375082357e-03
 1.112077035170842094e-03
 1.141703580836187296e-03
 1.171330120144319564e-03
 1.200956652857117961e-03
 1.230583178724420617e-03
 1.260209697483229141e-03
 1.289836208856936887e-03
 1.319462712554373991e-03
 1.349089208268854784e-03
 1.378715695677153880e-03
 1.408342174438343255e-03
 -1.670498514485558726e-04
 -1.385993102114391835e-04
 -1.101487702588804579e-04
 -8.169823162053055159e-05
 -5.324769432695746071e-05
 -2.479715840968812761e-05
 3.653376098756376647e-06
 3.210390916482879040e-05
 6.055444075389954719e-05
 8.900497083022925393e-05
 1.174554993569106183e-04
 1.459060262958285605e-04
 1.743565516076080017e-04
 2.028070752515594578e-04
 2.312575971856261302e-04
 2.597081173663253048e-04
 2.881586357486863896e-04
 3.166091522861892238e-04
 3.450596669306949600e-04
 3.735101796323737748e-04
 4.019606903396316850e-04
 4.304111989990328110e-04
 4.588617055552178981e-04
 4.873122099508028901e-04
 5.157627121263117084e-04
 5.442132120200559057e-04
 5.726637095680452193e-04
 6.011142047038655440e-04
 6.295646973585825468e-04
 6.580151874606042983e-04
 6.864656749355565893e-04
 7.149161597061514176e-04
 7.433666416920392105e-04
 7.718171208096461953e-04
 8.002675969720375723e-04
 8.287180700887121672e-04
 8.571685400654438123e-04
 8.856190068040868408e-04
 9.140694702023408145e-04
 9.425199301535663182e-04
 9.709703865465352680e-04
 9.994208392651836043e-04
 1.027871288188332869e-03
 1.056321733189423276e-03
 1.084772174136210783e-03
 1.113222610890425568e-03
 1.141673043307448289e-03
 1.170123471235937334e-03
 1.198573894517403161e-03
 1.227024312985830349e-03
 1.255474726467178210e-03
 1.283925134778938441e-03
 1.312375537729572415e-03
 1.340825935117946101e-03
 1.369276326732778637e-03
 1.397726712351895747e-03
 1.426177091741624974e-03
 1.454627464655959112e-03
 1.483077830835784466e-03
 1.511528190007980534e-03
 9.280184981976035368e-06
 3.654642821187640422e-05
 6.381267043998256139e-05
 9.107891164336450168e-05
 1.183451517983858927e-04
 1.456113908806781114e-04
 1.728776288651135936e-04
 2.001438657257708135e-04
 2.274101014359082497e-04
 2.546763359679263977e-04
 2.819425692933390107e-04
 3.092088013827314942e-04
 3.364750322057265632e-04
 3.637412617309425280e-04
 3.910074899259531243e-04
 4.182737167572418138e-04
 4.455399421901588505e-04
 4.728061661888674494e-04
 5.000723887162944557e-04
 5.273386097340852958e-04
 5.546048292025300896e-04
 5.818710470805254316e-04
 6.091372633254916666e-04
 6.364034778933193304e-04
 6.636696907382969414e-04
 6.909359018130307702e-04
 7.182021110683843405e-04
 7.454683184533732621e-04
 7.727345239150951910e-04
 8.000007273986384313e-04
 8.272669288469695036e-04
 8.545331282008538894e-04
 8.817993253987264695e-04
 9.090655203765950296e-04
 9.363317130678917247e-04
 9.635979034033838493e-04
 9.908640913109975461e-04
 1.018130276715696917e-03
 1.045396459539317275e-03
 1.072662639700407931e-03
 1.099928817114059374e-03
 1.127194991691691638e-03
 1.154461163340909447e-03
 1.181727331965231600e-03
 1.208993497463898637e-03
 1.236259659731642983e-03
 1.263525818658396216e-03
 1.290791974129024090e-03
 1.318058126023073260e-03
 1.345324274214402009e-03
 1.372590418570879701e-03
 1.399856558954008833e-03
 1.427122695218518023e-03
 1.454388827212007912e-03
 1.481654954774452859e-03
 1.508921077737705903e-03
 1.536187195925028861e-03
 1.563453309150525730e-03
 1.590719417218482406e-03
 1.617985519922777527e-03
 1.891950288994005257e-04
 2.152709492253997430e-04
 2.413468688316158404e-04
 2.674227877017379992e-04
 2.934987058189582939e-04
 3.195746231659501438e-04
 3.456505397248579858e-04
 3.717264554772644236e-04
 3.978023704041759698e-04
 4.238782844859964290e-04
 4.499541977025077618e-04
 4.760301100328377753e-04
 5.021060214554399570e-04
 5.281819319480641475e-04
 5.542578414877226585e-04
 5.803337500506689688e-04
 6.064096576123622706e-04
 6.324855641474229091e-04
 6.585614696296182872e-04
 6.846373740318070300e-04
 7.107132773259087349e-04
 7.367891794828570259e-04
 7.628650804725672441e-04
 7.889409802638858160e-04
 8.150168788245247672e-04
 8.410927761210455680e-04
 8.671686721187709876e-04
 8.932445667817563630e-04
 9.193204600727106690e-04
 9.453963519529419825e-04
 9.714722423822871183e-04
 9.975481313190576356e-04
 1.023624018719925888e-03
 1.049699904539902907e-03
 1.075775788732200597e-03
 1.101851671248171675e-03
 1.127927552037221413e-03
 1.154003431046686859e-03
 1.180079308221753352e-03
 1.206155183505311628e-03
 1.232231056837878235e-03
 1.258306928157435726e-03
 1.284382797399310789e-03
 1.310458664496052172e-03
 1.336534529377215357e-03
 1.362610391969273005e-03
 1.388686252195389008e-03
 1.414762109975265837e-03
 1.440837965224899507e-03
 1.466913817856448825e-03
 1.492989667777891698e-03
 1.519065514892905654e-03
 1.545141359100502898e-03
 1.571217200294804800e-03
 1.597293038364746556e-03
 1.623368873193714416e-03
 1.649444704659254034e-03
 1.675520532632574985e-03
 1.701596356978358647e-03
 1.727672177554082306e-03
 3.725280735997198059e-04
 3.974097378642394243e-04
 4.222914016835059960e-04
 4.471730650475492521e-04
 4.720547279460913354e-04
 4.969363903685516254e-04
 5.218180523040162177e-04
 5.466997137412440500e-04
 5.715813746686382790e-04
 5.964630350742475273e-04
 6.213446949457352006e-04
 6.462263542703779694e-04
 6.711080130350443023e-04
 6.959896712261749501e-04
 7.208713288297765491e-04
 7.457529858313949496e-04
 7.706346422160903877e-04
 7.955162979684316307e-04
 8.203979530724685469e-04
 8.452796075117097706e-04
 8.701612612690971154e-04
 8.950429143269845404e-04
 9.199245666671138641e-04
 9.448062182705813713e-04
 9.696878691178173210e-04
 9.945695191885572158e-04
 1.019451168461798542e-03
 1.044332816915770302e-03
 1.069214464527918707e-03
 1.094096111274840601e-03
 1.118977757132251808e-03
 1.143859402074974335e-03
 1.168741046076844864e-03
 1.193622689110709987e-03
 1.218504331148349655e-03
 1.243385972160450294e-03
 1.268267612116522839e-03
 1.293149250984863266e-03
 1.318030888732480603e-03
 1.342912525325050312e-03
 1.367794160726808466e-03
 1.392675794900538741e-03
 1.417557427807405665e-03
 1.442439059406959607e-03
 1.467320689656987373e-03
 1.492202318513444984e-03
 1.517083945930384386e-03
 1.541965571859732920e-03
 1.566847196251345588e-03
 1.591728819052737462e-03
 1.616610440209030348e-03
 1.641492059662773024e-03
 1.666373677353851900e-03
 1.691255293219240787e-03
 1.716136907192905917e-03
 1.741018519205545737e-03
 1.765900129184494200e-03
 1.790781737053424340e-03
 1.815663342732090884e-03
 1.840544946136209257e-03
 5.591127036928542678e-04
 5.827982500366330398e-04
 6.064837961960745658e-04
 6.301693421671015951e-04
 6.538548879455217348e-04
 6.775404335270097771e-04
 7.012259789071140963e-04
 7.249115240812452647e-04
 7.485970690446820154e-04
 7.722826137925460892e-04
 7.959681583198138354e-04
 8.196537026212986476e-04
 8.433392466916647331e-04
 8.670247905253877568e-04
 8.907103341167699109e-04
 9.143958774599528173e-04
 9.380814205488495483e-04
 9.617669633772012215e-04
 9.854525059385247417e-04
 1.009138048226137195e-03
 1.032823590233114324e-03
 1.056509131952305600e-03
 1.080194673376311774e-03
 1.103880214497475129e-03
 1.127565755307889878e-03
 1.151251295799343190e-03
 1.174936835963342075e-03
 1.198622375791106014e-03
 1.222307915273504724e-03
 1.245993454401113669e-03
 1.269678993164125372e-03
 1.293364531552396038e-03
 1.317050069555378332e-03
 1.340735607162145231e-03
 1.364421144361340149e-03
 1.388106681141169354e-03
 1.411792217489393070e-03