<VTKFile type="UnstructuredGrid" byte_order="BigEndian">
<UnstructuredGrid><Piece NumberOfPoints="1281" NumberOfCells="1200">
<Points>
 <DataArray type="Float32" NumberOfComponents="3" format="ascii">
 -3.000000026077032089e-03 0.000000000000000000e+00 0.000000000000000000e+00
 -2.950000111013650894e-03 0.000000000000000000e+00 0.000000000000000000e+00
 -2.899999963119626045e-03 0.000000000000000000e+00 0.000000000000000000e+00
 -2.850000048056244850e-03 0.000000000000000000e+00 0.000000000000000000e+00
 -2.799999900162220001e-03 0.000000000000000000e+00 0.000000000000000000e+00
 -2.749999985098838806e-03 0.000000000000000000e+00 0.000000000000000000e+00
 -2.700000070035457611e-03 0.000000000000000000e+00 0.000000000000000000e+00
 -2.649999922141432762e-03 0.000000000000000000e+00 0.000000000000000000e+00
 -2.600000007078051567e-03 0.000000000000000000e+00 0.000000000000000000e+00
 -2.550000092014670372e-03 0.000000000000000000e+00 0.000000000000000000e+00
 -2.499999944120645523e-03 0.000000000000000000e+00 0.000000000000000000e+00
 -2.450000029057264328e-03 0.000000000000000000e+00 0.000000000000000000e+00
 -2.400000113993883133e-03 0.000000000000000000e+00 0.000000000000000000e+00
 -2.349999966099858284e-03 0.000000000000000000e+00 0.000000000000000000e+00
 -2.300000051036477089e-03 0.000000000000000000e+00 0.000000000000000000e+00
 -2.249999903142452240e-03 0.000000000000000000e+00 0.000000000000000000e+00
 -2.199999988079071045e-03 0.000000000000000000e+00 0.000000000000000000e+00
 -2.150000073015689850e-03 0.000000000000000000e+00 0.000000000000000000e+00
 -2.099999925121665001e-03 0.000000000000000000e+00 0.000000000000000000e+00
 -2.050000010058283806e-03 0.000000000000000000e+00 0.000000000000000000e+00
 -2.000000094994902611e-03 0.000000000000000000e+00 0.000000000000000000e+00
 -1.949999947100877762e-03 0.000000000000000000e+00 0.000000000000000000e+00
 -1.900000032037496567e-03 0.000000000000000000e+00 0.000000000000000000e+00
 -1.850000000558793545e-03 0.000000000000000000e+00 0.000000000000000000e+00
 -1.799999969080090523e-03 0.000000000000000000e+00 0.000000000000000000e+00
 -1.750000054016709328e-03 0.000000000000000000e+00 0.000000000000000000e+00
 -1.700000022538006306e-03 0.000000000000000000e+00 0.000000000000000000e+00
 -1.649999991059303284e-03 0.000000000000000000e+00 0.000000000000000000e+00
 -1.599999959580600262e-03 0.000000000000000000e+00 0.000000000000000000e+00
 -1.550000044517219067e-03 0.000000000000000000e+00 0.000000000000000000e+00
 -1.500000013038516045e-03 0.000000000000000000e+00 0.000000000000000000e+00
 -1.449999981559813023e-03 0.000000000000000000e+00 0.000000000000000000e+00
 -1.399999950081110001e-03 0.000000000000000000e+00 0.000000000000000000e+00
 -1.350000035017728806e-03 0.000000000000000000e+00 0.000000000000000000e+00
 -1.300000003539025784e-03 0.000000000000000000e+00 0.000000000000000000e+00
 -1.249999972060322762e-03 0.000000000000000000e+00 0.000000000000000000e+00
 -1.200000056996941566e-03 0.000000000000000000e+00 0.000000000000000000e+00
 -1.150000025518238544e-03 0.000000000000000000e+00 0.000000000000000000e+00
 -1.099999994039535522e-03 0.000000000000000000e+00 0.000000000000000000e+00
 -1.049999962560832500e-03 0.000000000000000000e+00 0.000000000000000000e+00
 -1.000000047497451305e-03 0.000000000000000000e+00 0.000000000000000000e+00
 -9.500000160187482834e-04 0.000000000000000000e+00 0.000000000000000000e+00
 -8.999999845400452614e-04 0.000000000000000000e+00 0.000000000000000000e+00
 -8.500000112690031528e-04 0.000000000000000000e+00 0.000000000000000000e+00
 -7.999999797903001308e-04 0.000000000000000000e+00 0.000000000000000000e+00
 -7.500000065192580223e-04 0.000000000000000000e+00 0.000000000000000000e+00
 -6.999999750405550003e-04 0.000000000000000000e+00 0.000000000000000000e+00
 -6.500000017695128918e-04 0.000000000000000000e+00 0.000000000000000000e+00
 -6.000000284984707832e-04 0.000000000000000000e+00 0.000000000000000000e+00
 -5.499999970197677612e-04 0.000000000000000000e+00 0.000000000000000000e+00
 -5.000000237487256527e-04 0.000000000000000000e+00 0.000000000000000000e+00
 -4.499999922700226307e-04 0.000000000000000000e+00 0.000000000000000000e+00
 -3.999999898951500654e-04 0.000000000000000000e+00 0.000000000000000000e+00
 -3.499999875202775002e-04 0.000000000000000000e+00 0.000000000000000000e+00
 -3.000000142492353916e-04 0.000000000000000000e+00 0.000000000000000000e+00
 -2.500000118743628263e-04 0.000000000000000000e+00 0.000000000000000000e+00
 -1.999999949475750327e-04 0.000000000000000000e+00 0.000000000000000000e+00
 -1.500000071246176958e-04 0.000000000000000000e+00 0.000000000000000000e+00
 -9.999999747378751636e-05 0.000000000000000000e+00 0.000000000000000000e+00
 -4.999999873689375818e-05 0.000000000000000000e+00 0.000000000000000000e+00
 0.000000000000000000e+00 0.000000000000000000e+00 0.000000000000000000e+00
 -2.995762275531888008e-03 2.652753901202231646e-04 0.000000000000000000e+00
 -2.945800777524709702e-03 2.641264291014522314e-04 0.000000000000000000e+00
 -2.895839279517531395e-03 2.629774389788508415e-04 0.000000000000000000e+00
 -2.845877781510353088e-03 2.618284779600799084e-04 0.000000000000000000e+00
 -2.795916283503174782e-03 2.606794878374785185e-04 0.000000000000000000e+00
 -2.745954785495996475e-03 2.595305268187075853e-04 0.000000000000000000e+00
 -2.695993287488818169e-03 2.583815366961061954e-04 0.000000000000000000e+00
 -2.646031789481639862e-03 2.572325756773352623e-04 0.000000000000000000e+00
 -2.596070291474461555e-03 2.560835855547338724e-04 0.000000000000000000e+00
 -2.546108793467283249e-03 2.549346245359629393e-04 0.000000000000000000e+00
 -2.496147295460104942e-03 2.537856344133615494e-04 0.000000000000000000e+00
 -2.446185797452926636e-03 2.526366733945906162e-04 0.000000000000000000e+00
 -2.396224299445748329e-03 2.514876832719892263e-04 0.000000000000000000e+00
 -2.346262801438570023e-03 2.503387222532182932e-04 0.000000000000000000e+00
 -2.296301303431391716e-03 2.491897612344473600e-04 0.000000000000000000e+00
 -2.246339805424213409e-03 2.480407711118459702e-04 0.000000000000000000e+00
 -2.196378307417035103e-03 2.468918100930750370e-04 0.000000000000000000e+00
 -2.146416809409856796e-03 2.457428199704736471e-04 0.000000000000000000e+00
 -2.096455311402678490e-03 2.445938589517027140e-04 0.000000000000000000e+00
 -2.046493813395500183e-03 2.434448833810165524e-04 0.000000000000000000e+00
 -1.996532315388321877e-03 2.422959078103303909e-04 0.000000000000000000e+00
 -1.946570817381143570e-03 2.411469322396442294e-04 0.000000000000000000e+00
 -1.896609319373965263e-03 2.399979566689580679e-04 0.000000000000000000e+00
 -1.846647821366786957e-03 2.388489810982719064e-04 0.000000000000000000e+00
 -1.796686323359608650e-03 2.377000055275857449e-04 0.000000000000000000e+00
 -1.746724825352430344e-03 2.365510299568995833e-04 0.000000000000000000e+00
 -1.696763327345252037e-03 2.354020543862134218e-04 0.000000000000000000e+00
 -1.646801829338073730e-03 2.342530788155272603e-04 0.000000000000000000e+00
 -1.596840331330895424e-03 2.331041032448410988e-04 0.000000000000000000e+00
 -1.546878833323717117e-03 2.319551276741549373e-04 0.000000000000000000e+00
 -1.496917335316538811e-03 2.308061521034687757e-04 0.000000000000000000e+00
 -1.446955837309360504e-03 2.296571765327826142e-04 0.000000000000000000e+00
 -1.396994339302182198e-03 2.285082155140116811e-04 0.000000000000000000e+00
 -1.347032841295003891e-03 2.273592399433255196e-04 0.000000000000000000e+00
 -1.297071343287825584e-03 2.262102643726393580e-04 0.000000000000000000e+00
 -1.247109845280647278e-03 2.250612888019531965e-04 0.000000000000000000e+00
 -1.197148347273468971e-03 2.239123132312670350e-04 0.000000000000000000e+00
 -1.147186849266290665e-03 2.227633376605808735e-04 0.000000000000000000e+00
 -1.097225351259112358e-03 2.216143620898947120e-04 0.000000000000000000e+00
 -1.047263853251934052e-03 2.204653865192085505e-04 0.000000000000000000e+00
 -9.973023552447557449e-04 2.193164109485223889e-04 0.000000000000000000e+00
 -9.473408572375774384e-04 2.181674353778362274e-04 0.000000000000000000e+00
 -8.973793592303991318e-04 2.170184598071500659e-04 0.000000000000000000e+00
 -8.474178612232208252e-04 2.158694842364639044e-04 0.000000000000000000e+00
 -7.974563632160425186e-04 2.147205086657777429e-04 0.000000000000000000e+00
 -7.474948652088642120e-04 2.135715476470068097e-04 0.000000000000000000e+00
 -6.975333672016859055e-04 2.124225720763206482e-04 0.000000000000000000e+00
 -6.475718691945075989e-04 2.112735965056344867e-04 0.000000000000000000e+00
 -5.976103711873292923e-04 2.101246209349483252e-04 0.000000000000000000e+00
 -5.476488731801509857e-04 2.089756453642621636e-04 0.000000000000000000e+00
 -4.976873751729726791e-04 2.078266697935760021e-04 0.000000000000000000e+00
 -4.477258771657943726e-04 2.066776942228898406e-04 0.000000000000000000e+00
 -3.977643791586160660e-04 2.055287186522036791e-04 0.000000000000000000e+00
 -3.478028811514377594e-04 2.043797430815175176e-04 0.000000000000000000e+00
 -2.978413831442594528e-04 2.032307675108313560e-04 0.000000000000000000e+00
 -2.478798851370811462e-04 2.020817919401451945e-04 0.000000000000000000e+00
 -1.979184016818180680e-04 2.009328163694590330e-04 0.000000000000000000e+00
 -1.479569036746397614e-04 1.997838407987728715e-04 0.000000000000000000e+00
 -9.799539839150384068e-05 1.986348797800019383e-04 0.000000000000000000e+00
 -4.803390402230434120e-05 1.974859042093157768e-04 0.000000000000000000e+00
 1.927595121742342599e-06 1.963369286386296153e-04 0.000000000000000000e+00
 -2.983161015436053276e-03 5.359531496651470661e-04 0.000000000000000000e+00
 -2.933313138782978058e-03 5.335638998076319695e-04 0.000000000000000000e+00
 -2.883465262129902840e-03 5.311746499501168728e-04 0.000000000000000000e+00
 -2.833617385476827621e-03 5.287854000926017761e-04 0.000000000000000000e+00
 -2.783769508823752403e-03 5.263961502350866795e-04 0.000000000000000000e+00
[...]
<CellData>
 <DataArray Name="pos.x" type="Float32" NumberOfComponents="1" format="ascii">
 -2.972890777760972113e-03
 -2.922910028595415016e-03
 -2.872929279429857485e-03
 -2.822948530264300388e-03
 -2.772967781098743291e-03
 -2.722987031933186194e-03
 -2.673006282767629097e-03
 -2.623025533602071999e-03
 -2.573044784436514902e-03
 -2.523064035270957805e-03
 -2.473083286105400274e-03
 -2.423102536939843610e-03
 -2.373121787774286513e-03
 -2.323141038608729416e-03
 -2.273160289443172319e-03
 -2.223179540277615222e-03
 -2.173198791112057691e-03
 -2.123218041946500594e-03
 -2.073237292780943930e-03
 -2.023256543615387266e-03
 -1.973275794449829736e-03
 -1.923295045284272422e-03
 -1.873314296118715324e-03
 -1.823333546953158227e-03
 -1.773352797787600913e-03
 -1.723372048622044033e-03
 -1.673391299456486936e-03
 -1.623410550290929621e-03
 -1.573429801125372958e-03
 -1.523449051959815861e-03
 -1.473468302794258764e-03
 -1.423487553628701449e-03
 -1.373506804463144352e-03
 -1.323526055297587255e-03
 -1.273545306132029941e-03
 -1.223564556966472844e-03
 -1.173583807800916180e-03
 -1.123603058635358866e-03
 -1.073622309469801552e-03
 -1.023641560304244455e-03
 -9.736608111386875746e-04
 -9.236800619731302606e-04
 -8.736993128075731634e-04
 -8.237185636420160662e-04
 -7.737378144764589689e-04
 -7.237570653109019802e-04
 -6.737763161453449914e-04
 -6.237955669797876773e-04
 -5.738148178142303633e-04
 -5.238340686486732661e-04
 -4.738533194831162773e-04
 -4.238725703175590716e-04
 -3.738918211520019744e-04
 -3.239110719864449857e-04
 -2.739303228208877800e-04
 -2.239495736553305744e-04
 -1.739688244897735856e-04
 -1.239880753242165968e-04
 -7.400732615865939119e-05
 -2.402657699310229399e-05
 -2.964509285781418649e-03
 -2.914604615156754855e-03
 -2.864699944532091060e-03
 -2.814795273907427266e-03
 -2.764890603282763905e-03
 -2.714985932658100544e-03
 -2.665081262033437183e-03
 -2.615176591408773822e-03
 -2.565271920784110028e-03
 -2.515367250159446667e-03
 -2.465462579534782872e-03
 -2.415557908910119511e-03
 -2.365653238285456150e-03
 -2.315748567660792356e-03
 -2.265843897036128561e-03
 -2.215939226411465634e-03
 -2.166034555786801839e-03
 -2.116129885162138045e-03
 -2.066225214537474250e-03
 -2.016320543912811757e-03
 -1.966415873288147962e-03
 -1.916511202663484167e-03
 -1.866606532038820590e-03
 -1.816701861414156795e-03
 -1.766797190789493217e-03
 -1.716892520164829856e-03
 -1.666987849540166496e-03
 -1.617083178915502701e-03
 -1.567178508290839123e-03
 -1.517273837666175979e-03
 -1.467369167041512618e-03
 -1.417464496416848824e-03
 -1.367559825792185246e-03
 -1.317655155167521668e-03
 -1.267750484542858090e-03
 -1.217845813918194730e-03
 -1.167941143293531369e-03
 -1.118036472668867791e-03
 -1.068131802044203996e-03
 -1.018227131419540419e-03
 -9.683224607948770577e-04
 -9.184177901702134800e-04
 -8.685131195455497938e-04
 -8.186084489208863245e-04
 -7.687037782962227467e-04
 -7.187991076715591690e-04
 -6.688944370468958081e-04
 -6.189897664222322304e-04
 -5.690850957975684358e-04
 -5.191804251729048580e-04
 -4.692757545482413887e-04
 -4.193710839235777026e-04
 -3.694664132989142332e-04
 -3.195617426742508723e-04
 -2.696570720495872946e-04
 -2.197524014249236355e-04
 -1.698477308002601933e-04
 -1.199430601755967511e-04
 -7.003838955093322758e-05
 -2.013371892626968372e-05
 -2.947884798907049898e-03
 -2.898129982658649052e-03
 -2.848375166410247773e-03
 -2.798620350161846494e-03
 -2.748865533913445215e-03
 -2.699110717665044804e-03
 -2.649355901416644392e-03
 -2.599601085168243113e-03
 -2.549846268919842267e-03
 -2.500091452671441856e-03
 -2.450336636423040577e-03
 -2.400581820174639731e-03
 -2.350827003926238452e-03
 -2.301072187677837173e-03
 -2.251317371429436762e-03
 -2.201562555181036350e-03
 -2.151807738932635071e-03
 -2.102052922684233792e-03
 -2.052298106435832513e-03
 -2.002543290187432101e-03
 -1.952788473939031256e-03
 -1.903033657690630194e-03
 -1.853278841442229131e-03
 -1.803524025193827852e-03
 -1.753769208945427007e-03
 -1.704014392697026162e-03
 -1.654259576448625316e-03
 -1.604504760200224254e-03
 -1.554749943951823409e-03
 -1.504995127703422564e-03
 -1.455240311455021501e-03
 -1.405485495206620656e-03
 -1.355730678958219594e-03
 -1.305975862709818965e-03
 -1.256221046461417903e-03
 -1.206466230213017275e-03
 -1.156711413964616212e-03
 -1.106956597716215150e-03
 -1.057201781467814305e-03
 -1.007446965219413243e-03
 -9.576921489710125057e-04
 -9.079373327226115519e-04
 -8.581825164742105981e-04
 -8.084277002258096444e-04
 -7.586728839774085822e-04
 -7.089180677290077368e-04
 -6.591632514806068915e-04
 -6.094084352322058293e-04
 -5.596536189838047671e-04
 -5.098988027354039217e-04
 -4.601439864870029680e-04
 -4.103891702386020684e-04
 -3.606343539902010604e-04
 -3.108795377418001609e-04
 -2.611247214933992071e-04
 -2.113699052449983075e-04
 -1.616150889965975164e-04
 -1.118602727481965626e-04
 -6.210545649979571725e-05
 -1.235064025139480414e-05
 -2.923183523542150376e-03
 -2.873649594063949764e-03
 -2.824115664585749152e-03
 -2.774581735107548540e-03
 -2.725047805629347928e-03
 -2.675513876151147316e-03
 -2.625979946672947138e-03
 -2.576446017194746526e-03
 -2.526912087716545914e-03
 -2.477378158238345736e-03
 -2.427844228760145558e-03
 -2.378310299281944512e-03
 -2.328776369803743466e-03
 -2.279242440325542855e-03
 -2.229708510847343110e-03
 -2.180174581369142932e-03
 -2.130640651890941886e-03
 -2.081106722412741274e-03
 -2.031572792934540662e-03
 -1.982038863456340918e-03
 -1.932504933978140523e-03
 -1.882971004499939694e-03
 -1.833437075021739082e-03
 -1.783903145543538470e-03
 -1.734369216065337858e-03
 -1.684835286587137463e-03
 -1.635301357108936851e-03
 -1.585767427630736456e-03
 -1.536233498152536278e-03
 -1.486699568674335666e-03
 -1.437165639196135054e-03
 -1.387631709717934442e-03
 -1.338097780239734047e-03
 -1.288563850761533219e-03
 -1.239029921283332824e-03
 -1.189495991805132645e-03
 -1.139962062326932033e-03
 -1.090428132848731422e-03
 -1.040894203370531026e-03
 -9.913602738923306314e-04
 -9.418263444141301280e-04
 -8.922924149359296245e-04
 -8.427584854577290126e-04
 -7.932245559795286175e-04
 -7.436906265013282225e-04
 -6.941566970231276106e-04
 -6.446227675449269987e-04
 -5.950888380667263867e-04
 -5.455549085885259917e-04
 -4.960209791103255966e-04
 -4.464870496321250931e-04
 -3.969531201539245355e-04
 -3.474191906757239778e-04
 -2.978852611975234201e-04
 -2.483513317193229166e-04
 -1.988174022411226300e-04
 -1.492834727629221265e-04
 -9.974954328472156878e-05
 -5.021561380652104497e-05
 -6.816843283205618192e-07
 -2.890571678460898773e-03
 -2.841326949445196863e-03
 -2.792082220429494520e-03
 -2.742837491413792610e-03
 -2.693592762398090267e-03
 -2.644348033382387924e-03
 -2.595103304366686448e-03
 -2.545858575350984539e-03
 -2.496613846335282196e-03
 -2.447369117319579852e-03
 -2.398124388303878377e-03
 -2.348879659288176033e-03
 -2.299634930272473690e-03
 -2.250390201256771347e-03
 -2.201145472241069437e-03
 -2.151900743225367528e-03
 -2.102656014209665618e-03
 -2.053411285193963275e-03
 -2.004166556178261366e-03
 -1.954921827162559456e-03
 -1.905677098146857330e-03
 -1.856432369131154987e-03
 -1.807187640115452860e-03
 -1.757942911099750734e-03
 -1.708698182084048825e-03
 -1.659453453068346481e-03
 -1.610208724052644355e-03
 -1.560963995036942662e-03
 -1.511719266021240536e-03
 -1.462474537005538193e-03
 -1.413229807989836283e-03
 -1.363985078974134157e-03
 -1.314740349958432031e-03
 -1.265495620942730121e-03
 -1.216250891927027778e-03
 -1.167006162911325652e-03
 -1.117761433895623742e-03
 -1.068516704879921833e-03
 -1.019271975864219706e-03
 -9.700272468485175801e-04
 -9.207825178328154538e-04
 -8.715377888171133274e-04
 -8.222930598014112011e-04
 -7.730483307857090747e-04
 -7.238036017700071652e-04
 -6.745588727543049305e-04
 -6.253141437386028042e-04
 -5.760694147229006778e-04
 -5.268246857071986599e-04
 -4.775799566914965878e-04
 -4.283352276757944614e-04
 -3.790904986600923351e-04
 -3.298457696443901545e-04
 -2.806010406286880824e-04
 -2.313563116129861729e-04
 -1.821115825972841550e-04
 -1.328668535815819745e-04
 -8.362212456587982102e-05
 -3.437739555017770823e-05
 1.486733346552437745e-05
 -2.850215494793056914e-03
 -2.801325585941671394e-03
 -2.752435677090285873e-03
 -2.703545768238900353e-03
 -2.654655859387514832e-03
 -2.605765950536128878e-03
 -2.556876041684743792e-03
 -2.507986132833358271e-03
 -2.459096223981973185e-03
 -2.410206315130587230e-03
 -2.361316406279201276e-03
 -2.312426497427816190e-03
 -2.263536588576430669e-03
 -2.214646679725044282e-03
 -2.165756770873658761e-03
 -2.116866862022273241e-03
 -2.067976953170888154e-03
 -2.019087044319502634e-03
 -1.970197135468117113e-03
 -1.921307226616731593e-03
 -1.872417317765345856e-03
 -1.823527408913960118e-03
 -1.774637500062574598e-03
 -1.725747591211189078e-03
 -1.676857682359803557e-03
 -1.627967773508417603e-03
 -1.579077864657032516e-03
 -1.530187955805646779e-03
 -1.481298046954261259e-03
 -1.432408138102875738e-03
 -1.383518229251490218e-03
 -1.334628320400104481e-03
 -1.285738411548718960e-03
 -1.236848502697333440e-03
 -1.187958593845947703e-03
 -1.139068684994561965e-03
 -1.090178776143176445e-03
 -1.041288867291790925e-03
 -9.923989584404054043e-04
 -9.435090495890196671e-04
 -8.946191407376341467e-04
 -8.457292318862487347e-04
 -7.968393230348629975e-04
 -7.479494141834772602e-04
 -6.990595053320917398e-04
 -6.501695964807062194e-04
 -6.012796876293208075e-04
 -5.523897787779350702e-04
 -5.034998699265493330e-04
 -4.546099610751638668e-04
 -4.057200522237784006e-04
 -3.568301433723928260e-04
 -3.079402345210071430e-04
 -2.590503256696216226e-04
 -2.101604168182361022e-04
 -1.612705079668505818e-04
 -1.123805991154649259e-04
 -6.349069026407933773e-05
 -1.460078141269380379e-05
 3.428912743869174371e-05
 -2.802281216004885202e-03
 -2.753809077702156199e-03
 -2.705336939399427196e-03
 -2.656864801096698626e-03
 -2.608392662793969623e-03
 -2.559920524491240620e-03
 -2.511448386188512051e-03
 -2.462976247885783482e-03
 -2.414504109583054912e-03
 -2.366031971280325476e-03
 -2.317559832977596473e-03
 -2.269087694674868337e-03
 -2.220615556372139768e-03
 -2.172143418069410331e-03
 -2.123671279766681328e-03
 -2.075199141463952325e-03
 -2.026727003161223756e-03
 -1.978254864858495186e-03
 -1.929782726555766183e-03
 -1.881310588253037180e-03
 -1.832838449950308177e-03
 -1.784366311647579391e-03
 -1.735894173344850605e-03
 -1.687422035042121602e-03
 -1.638949896739392599e-03
 -1.590477758436663596e-03
 -1.542005620133935027e-03
 -1.493533481831206241e-03
 -1.445061343528477238e-03
 -1.396589205225748451e-03
 -1.348117066923019448e-03
 -1.299644928620290662e-03
 -1.251172790317561659e-03
 -1.202700652014832656e-03
 -1.154228513712103870e-03
 -1.105756375409374867e-03
 -1.057284237106646081e-03
 -1.008812098803917078e-03
 -9.603399605011882917e-04
 -9.118678221984593971e-04
 -8.633956838957306109e-04
 -8.149235455930018248e-04
 -7.664514072902728218e-04
 -7.179792689875439272e-04
 -6.695071306848150326e-04
 -6.210349923820861380e-04
 -5.725628540793574603e-04
 -5.240907157766285657e-04
 -4.756185774738996169e-04
 -4.271464391711707765e-04
 -3.786743008684419361e-04
 -3.302021625657128789e-04
 -2.817300242629839843e-04
 -2.332578859602551710e-04
 -1.847857476575263849e-04
 -1.363136093547975716e-04
 -8.784147105206860926e-05
 -3.936933274933970112e-05
 9.102805553389112150e-06
 5.757494385611795253e-05
 -2.746935097875310983e-03
 -2.698941035813432789e-03
 -2.650946973751555462e-03
 -2.602952911689677268e-03
 -2.554958849627799507e-03
 -2.506964787565921313e-03
 -2.458970725504043553e-03
 -2.410976663442166226e-03
 -2.362982601380288466e-03
 -2.314988539318409838e-03
 -2.266994477256532078e-03
 -2.219000415194654317e-03
 -2.171006353132776123e-03
 -2.123012291070898363e-03
 -2.075018229009020602e-03
 -2.027024166947142842e-03
 -1.979030104885264648e-03
 -1.931036042823386454e-03
 -1.883041980761508694e-03
 -1.835047918699630933e-03
 -1.787053856637752956e-03
 -1.739059794575874979e-03
 -1.691065732513997001e-03
 -1.643071670452119241e-03
 -1.595077608390241481e-03
 -1.547083546328363070e-03
 -1.499089484266485309e-03
 -1.451095422204607549e-03
 -1.403101360142729572e-03
 -1.355107298080851811e-03
 -1.307113236018973834e-03
 -1.259119173957096074e-03
 -1.211125111895217880e-03
 -1.163131049833340119e-03
 -1.115136987771461925e-03
 -1.067142925709584165e-03
 -1.019148863647706404e-03
 -9.711548015858284272e-04
 -9.231607395239504500e-04
 -8.751666774620725812e-04
 -8.271726154001948208e-04
 -7.791785533383167352e-04
 -7.311844912764387579e-04
 -6.831904292145608891e-04
 -6.351963671526831287e-04
 -5.872023050908051515e-04
 -5.392082430289272827e-04
 -4.912141809670494139e-04
 -4.432201189051715451e-04
 -3.952260568432936221e-04
 -3.472319947814155906e-04
 -2.992379327195374508e-04
 -2.512438706576594735e-04
 -2.032498085957817403e-04
 -1.552557465339039528e-04
 -1.072616844720259755e-04
 -5.926762241014802541e-05
 -1.127356034827018370e-05
 3.672050171360773932e-05
 8.471456377548566233e-05
 -2.684343408467345076e-03
 -2.636885108214534392e-03
 -2.589426807961725009e-03
 -2.541968507708915193e-03
 -2.494510207456104509e-03
 -2.447051907203294692e-03
 -2.399593606950484442e-03
 -2.352135306697674191e-03
 -2.304677006444864808e-03
 -2.257218706192054558e-03
 -2.209760405939244741e-03
 -2.162302105686434491e-03
 -2.114843805433624241e-03
 -2.067385505180814424e-03
 -2.019927204928004608e-03
 -1.972468904675194357e-03
 -1.925010604422384107e-03
 -1.877552304169574074e-03
 -1.830094003916764040e-03
 -1.782635703663954223e-03
 -1.735177403411143973e-03
 -1.687719103158333940e-03
 -1.640260802905523906e-03
 -1.592802502652713656e-03
 -1.545344202399903839e-03
 -1.497885902147093589e-03
 -1.450427601894283556e-03
 -1.402969301641473739e-03
 -1.355511001388663705e-03
 -1.308052701135853672e-03
 -1.260594400883043639e-03
 -1.213136100630233388e-03
 -1.165677800377423138e-03
 -1.118219500124613321e-03
 -1.070761199871803071e-03
 -1.023302899618993038e-03
 -9.758445993661832209e-04
 -9.283862991133732959e-04
 -8.809279988605631540e-04
 -8.334696986077531206e-04
 -7.860113983549431955e-04
 -7.385530981021330536e-04
 -6.910947978493230202e-04
 -6.436364975965129867e-04
 -5.961781973437029532e-04
 -5.487198970908929198e-04
 -5.012615968380828863e-04
 -4.538032965852727444e-04
 -4.063449963324627652e-04
 -3.588866960796526775e-04
 -3.114283958268426441e-04
 -2.639700955740323937e-04
 -2.165117953212221977e-04
 -1.690534950684123810e-04
 -1.215951948156024831e-04
 -7.413689456279236832e-05
 -2.667859430998228065e-05
 2.077970594282777992e-05
 6.823800619563778628e-05
 1.156963064484477926e-04
 -2.614672428094765542e-03
 -2.567804979596796395e-03
 -2.520937531098827247e-03
 -2.474070082600858533e-03
 -2.427202634102889386e-03
 -2.380335185604920238e-03
 -2.333467737106951524e-03
 -2.286600288608982377e-03
 -2.239732840111013663e-03
 -2.192865391613044515e-03
 -2.145997943115074934e-03
 -2.099130494617106220e-03
 -2.052263046119137506e-03
 -2.005395597621168792e-03
 -1.958528149123199644e-03
 -1.911660700625230714e-03
 -1.864793252127261349e-03
 -1.817925803629292635e-03
 -1.771058355131323704e-03
 -1.724190906633354774e-03
 -1.677323458135385626e-03
 -1.630456009637416695e-03
 -1.583588561139447765e-03
 -1.536721112641478834e-03
 -1.489853664143509469e-03
 -1.442986215645540755e-03
 -1.396118767147571608e-03
 -1.349251318649602894e-03
 -1.302383870151633746e-03
 -1.255516421653664816e-03
 -1.208648973155695885e-03
 -1.161781524657726737e-03
 -1.114914076159757590e-03
 -1.068046627661788876e-03
 -1.021179179163819728e-03
 -9.743117306658505804e-04
 -9.274442821678817580e-04
 -8.805768336699128273e-04
 -8.337093851719437881e-04
 -7.868419366739748573e-04
 -7.399744881760059265e-04
 -6.931070396780369958e-04
 -6.462395911800678482e-04
 -5.993721426820989174e-04
 -5.525046941841299866e-04
 -5.056372456861610559e-04
 -4.587697971881920167e-04
 -4.119023486902228691e-04
 -3.650349001922539383e-04
 -3.181674516942849533e-04
 -2.713000031963160768e-04
 -2.244325546983469563e-04
 -1.775651062003778357e-04
 -1.306976577024089863e-04
 -8.383020920444005553e-05
 -3.696276070647112476e-05
 9.904687791497833113e-06
 5.677213628946692651e-05
 1.036395847874358573e-04
 1.505070332854047880e-04
 -2.538088449284077799e-03
 -2.491864371289732351e-03
 -2.445640293295386902e-03
 -2.399416215301041020e-03
 -2.353192137306695138e-03
 -2.306968059312349256e-03
 -2.260743981318003807e-03
 -2.214519903323658358e-03
 -2.168295825329313344e-03
 -2.122071747334967895e-03
 -2.075847669340621579e-03
 -2.029623591346276130e-03
 -1.983399513351930682e-03
 -1.937175435357584800e-03
 -1.890951357363238917e-03
 -1.844727279368893903e-03
 -1.798503201374548020e-03
 -1.752279123380202355e-03
 -1.706055045385857123e-03
 -1.659830967391511458e-03
 -1.613606889397165792e-03
 -1.567382811402819910e-03
 -1.521158733408474462e-03
 -1.474934655414129013e-03
 -1.428710577419783131e-03
 -1.382486499425437682e-03
 -1.336262421431092017e-03
 -1.290038343436746351e-03
 -1.243814265442400903e-03
 -1.197590187448055237e-03
 -1.151366109453709789e-03
 -1.105142031459364124e-03
 -1.058917953465018458e-03
 -1.012693875470672793e-03
 -9.664697974763273441e-04
 -9.202457194819816787e-04
 -8.740216414876360133e-04
 -8.277975634932905648e-04
 -7.815734854989448994e-04
 -7.353494075045994508e-04
 -6.891253295102537854e-04
 -6.429012515159081200e-04
 -5.966771735215625630e-04
 -5.504530955272168976e-04
 -5.042290175328713406e-04
 -4.580049395385255668e-04
 -4.117808615441801183e-04
 -3.655567835498344529e-04
 -3.193327055554889501e-04
 -2.731086275611432305e-04
 -2.268845495667974838e-04
 -1.806604715724518726e-04
 -1.344363935781062885e-04
 -8.821231558376075861e-05
 -4.198823758941512031e-05
 4.235840404930382459e-06
 5.045991839927588523e-05
 9.668399639362155063e-05
 1.429080743879672702e-04
 1.891321523823127730e-04
 -2.454757776731762795e-03
 -2.409227041132788044e-03
 -2.363696305533812859e-03
 -2.318165569934837675e-03
 -2.272634834335862056e-03
 -2.227104098736886872e-03
 -2.181573363137912121e-03
 -2.136042627538937370e-03
 -2.090511891939962619e-03
 -2.044981156340987434e-03
 -1.999450420742012249e-03
 -1.953919685143037065e-03
 -1.908388949544062314e-03
 -1.862858213945086695e-03
 -1.817327478346111511e-03
 -1.771796742747136543e-03
 -1.726266007148161358e-03
 -1.680735271549186390e-03
 -1.635204535950211206e-03
 -1.589673800351236455e-03
 -1.544143064752261270e-03
 -1.498612329153286085e-03
 -1.453081593554310900e-03
 -1.407550857955335716e-03
 -1.362020122356360748e-03
 -1.316489386757385780e-03
 -1.270958651158410595e-03
 -1.225427915559435628e-03
 -1.179897179960460443e-03
 -1.134366444361485258e-03
 -1.088835708762510290e-03
 -1.043304973163535106e-03
 -9.977742375645601378e-04
 -9.522435019655851700e-04
 -9.067127663666099853e-04
 -8.611820307676348006e-04
 -8.156512951686597243e-04
 -7.701205595696846481e-04
 -7.245898239707096802e-04
 -6.790590883717346040e-04
 -6.335283527727595277e-04
 -5.879976171737845599e-04
 -5.424668815748093752e-04
 -4.969361459758341905e-04
 -4.514054103768591142e-04
 -4.058746747778839837e-04
 -3.603439391789090701e-04
 -3.148132035799339938e-04
 -2.692824679809589176e-04
 -2.237517323819837600e-04
 -1.782209967830085211e-04
 -1.326902611840334177e-04
 -8.715952558505834146e-05
 -4.162878998608326520e-05
 3.901945612891756857e-06
 4.943268121186672470e-05
 9.496341681084185518e-05
 1.404941524098170399e-04
 1.860248880087922788e-04
 2.315556236077671924e-04
 -2.364846727256840996e-03
 -2.320056783333023474e-03
 -2.275266839409205519e-03
 -2.230476895485387131e-03
 -2.185686951561569176e-03
 -2.140897007637751655e-03
 -2.096107063713934134e-03
 -2.051317119790116179e-03
 -2.006527175866299091e-03
 -1.961737231942480703e-03
 -1.916947288018662748e-03
 -1.872157344094845226e-03
 -1.827367400171028139e-03
 -1.782577456247209750e-03
 -1.737787512323391795e-03
 -1.692997568399573841e-03
 -1.648207624475755886e-03
 -1.603417680551938581e-03