<VTKFile type="UnstructuredGrid" byte_order="BigEndian">
<UnstructuredGrid><Piece NumberOfPoints="1281" NumberOfCells="1200">
<Points>
 <DataArray type="Float32" NumberOfComponents="3" format="ascii">
 6.323437672108411789e-03 1.785937510430812836e-02 0.000000000000000000e+00
 6.320932880043983459e-03 1.771569810807704926e-02 0.000000000000000000e+00
 6.318428553640842438e-03 1.757202297449111938e-02 0.000000000000000000e+00
 6.315923761576414108e-03 1.742834597826004028e-02 0.000000000000000000e+00
 6.313419435173273087e-03 1.728466898202896118e-02 0.000000000000000000e+00
 6.310914643108844757e-03 1.714099384844303131e-02 0.000000000000000000e+00
 6.308410316705703735e-03 1.699731685221195221e-02 0.000000000000000000e+00
 6.305905990302562714e-03 1.685363985598087311e-02 0.000000000000000000e+00
 6.303401198238134384e-03 1.670996472239494324e-02 0.000000000000000000e+00
 6.300896871834993362e-03 1.656628772616386414e-02 0.000000000000000000e+00
 6.298392079770565033e-03 1.642261259257793427e-02 0.000000000000000000e+00
 6.295887753367424011e-03 1.627893559634685516e-02 0.000000000000000000e+00
 6.293382961302995682e-03 1.613525860011577606e-02 0.000000000000000000e+00
 6.290878634899854660e-03 1.599158346652984619e-02 0.000000000000000000e+00
 6.288373842835426331e-03 1.584790647029876709e-02 0.000000000000000000e+00
 6.285869516432285309e-03 1.570422947406768799e-02 0.000000000000000000e+00
 6.283365190029144287e-03 1.556055340915918350e-02 0.000000000000000000e+00
 6.280860397964715958e-03 1.541687734425067902e-02 0.000000000000000000e+00
 6.278356071561574936e-03 1.527320127934217453e-02 0.000000000000000000e+00
 6.275851279497146606e-03 1.512952521443367004e-02 0.000000000000000000e+00
 6.273346953094005585e-03 1.498584821820259094e-02 0.000000000000000000e+00
 6.270842161029577255e-03 1.484217215329408646e-02 0.000000000000000000e+00
 6.268337834626436234e-03 1.469849608838558197e-02 0.000000000000000000e+00
 6.265833508223295212e-03 1.455481909215450287e-02 0.000000000000000000e+00
 6.263328716158866882e-03 1.441114302724599838e-02 0.000000000000000000e+00
 6.260824389755725861e-03 1.426746696233749390e-02 0.000000000000000000e+00
 6.258319597691297531e-03 1.412379089742898941e-02 0.000000000000000000e+00
 6.255815271288156509e-03 1.398011390119791031e-02 0.000000000000000000e+00
 6.253310479223728180e-03 1.383643783628940582e-02 0.000000000000000000e+00
 6.250806152820587158e-03 1.369276177138090134e-02 0.000000000000000000e+00
 6.248301360756158829e-03 1.354908477514982224e-02 0.000000000000000000e+00
 6.245797034353017807e-03 1.340540871024131775e-02 0.000000000000000000e+00
 6.243292707949876785e-03 1.326173264533281326e-02 0.000000000000000000e+00
 6.240787915885448456e-03 1.311805658042430878e-02 0.000000000000000000e+00
 6.238283589482307434e-03 1.297437958419322968e-02 0.000000000000000000e+00
 6.235778797417879105e-03 1.283070351928472519e-02 0.000000000000000000e+00
 6.233274471014738083e-03 1.268702745437622070e-02 0.000000000000000000e+00
 6.230769678950309753e-03 1.254335045814514160e-02 0.000000000000000000e+00
 6.228265352547168732e-03 1.239967439323663712e-02 0.000000000000000000e+00
 6.225761026144027710e-03 1.225599832832813263e-02 0.000000000000000000e+00
 6.223256234079599380e-03 1.211232226341962814e-02 0.000000000000000000e+00
 6.220751907676458359e-03 1.196864526718854904e-02 0.000000000000000000e+00
 6.218247115612030029e-03 1.182496920228004456e-02 0.000000000000000000e+00
 6.215742789208889008e-03 1.168129313737154007e-02 0.000000000000000000e+00
 6.213237997144460678e-03 1.153761614114046097e-02 0.000000000000000000e+00
 6.210733670741319656e-03 1.139394007623195648e-02 0.000000000000000000e+00
 6.208228878676891327e-03 1.125026401132345200e-02 0.000000000000000000e+00
 6.205724552273750305e-03 1.110658794641494751e-02 0.000000000000000000e+00
 6.203220225870609283e-03 1.096291095018386841e-02 0.000000000000000000e+00
 6.200715433806180954e-03 1.081923488527536392e-02 0.000000000000000000e+00
 6.198211107403039932e-03 1.067555882036685944e-02 0.000000000000000000e+00
 6.195706315338611603e-03 1.053188182413578033e-02 0.000000000000000000e+00
 6.193201988935470581e-03 1.038820575922727585e-02 0.000000000000000000e+00
 6.190697196871042252e-03 1.024452969431877136e-02 0.000000000000000000e+00
 6.188192870467901230e-03 1.010085362941026688e-02 0.000000000000000000e+00
 6.185688544064760208e-03 9.957176633179187775e-03 0.000000000000000000e+00
 6.183183752000331879e-03 9.813500568270683289e-03 0.000000000000000000e+00
 6.180679425597190857e-03 9.669824503362178802e-03 0.000000000000000000e+00
 6.178174633532762527e-03 9.526148438453674316e-03 0.000000000000000000e+00
 6.175670307129621506e-03 9.382471442222595215e-03 0.000000000000000000e+00
 6.173165515065193176e-03 9.238795377314090729e-03 0.000000000000000000e+00
 6.532882340252399445e-03 1.805469021201133728e-02 0.000000000000000000e+00
 6.529922597110271454e-03 1.790898106992244720e-02 0.000000000000000000e+00
 6.526962853968143463e-03 1.776327192783355713e-02 0.000000000000000000e+00
 6.524002645164728165e-03 1.761756278574466705e-02 0.000000000000000000e+00
 6.521042902022600174e-03 1.747185364365577698e-02 0.000000000000000000e+00
 6.518083158880472183e-03 1.732614450156688690e-02 0.000000000000000000e+00
 6.515123415738344193e-03 1.718043535947799683e-02 0.000000000000000000e+00
 6.512163672596216202e-03 1.703472621738910675e-02 0.000000000000000000e+00
 6.509203929454088211e-03 1.688901707530021667e-02 0.000000000000000000e+00
 6.506244186311960220e-03 1.674330793321132660e-02 0.000000000000000000e+00
 6.503284443169832230e-03 1.659759879112243652e-02 0.000000000000000000e+00
 6.500324700027704239e-03 1.645188964903354645e-02 0.000000000000000000e+00
 6.497364956885576248e-03 1.630618050694465637e-02 0.000000000000000000e+00
 6.494405213743448257e-03 1.616047322750091553e-02 0.000000000000000000e+00
 6.491445004940032959e-03 1.601476408541202545e-02 0.000000000000000000e+00
 6.488485261797904968e-03 1.586905494332313538e-02 0.000000000000000000e+00
 6.485525518655776978e-03 1.572334580123424530e-02 0.000000000000000000e+00
 6.482565775513648987e-03 1.557763665914535522e-02 0.000000000000000000e+00
 6.479606032371520996e-03 1.543192751705646515e-02 0.000000000000000000e+00
 6.476646289229393005e-03 1.528621837496757507e-02 0.000000000000000000e+00
 6.473686546087265015e-03 1.514050923287868500e-02 0.000000000000000000e+00
 6.470726802945137024e-03 1.499480009078979492e-02 0.000000000000000000e+00
 6.467767059803009033e-03 1.484909188002347946e-02 0.000000000000000000e+00
 6.464807316660881042e-03 1.470338273793458939e-02 0.000000000000000000e+00
 6.461847107857465744e-03 1.455767359584569931e-02 0.000000000000000000e+00
 6.458887364715337753e-03 1.441196445375680923e-02 0.000000000000000000e+00
 6.455927621573209763e-03 1.426625531166791916e-02 0.000000000000000000e+00
 6.452967878431081772e-03 1.412054616957902908e-02 0.000000000000000000e+00
 6.450008135288953781e-03 1.397483702749013901e-02 0.000000000000000000e+00
 6.447048392146825790e-03 1.382912881672382355e-02 0.000000000000000000e+00
 6.444088649004697800e-03 1.368341967463493347e-02 0.000000000000000000e+00
 6.441128905862569809e-03 1.353771053254604340e-02 0.000000000000000000e+00
 6.438169162720441818e-03 1.339200139045715332e-02 0.000000000000000000e+00
 6.435209419578313828e-03 1.324629224836826324e-02 0.000000000000000000e+00
 6.432249676436185837e-03 1.310058310627937317e-02 0.000000000000000000e+00
 6.429289467632770538e-03 1.295487396419048309e-02 0.000000000000000000e+00
 6.426329724490642548e-03 1.280916575342416763e-02 0.000000000000000000e+00
 6.423369981348514557e-03 1.266345661133527756e-02 0.000000000000000000e+00
 6.420410238206386566e-03 1.251774746924638748e-02 0.000000000000000000e+00
 6.417450495064258575e-03 1.237203832715749741e-02 0.000000000000000000e+00
 6.414490751922130585e-03 1.222632918506860733e-02 0.000000000000000000e+00
 6.411531008780002594e-03 1.208062004297971725e-02 0.000000000000000000e+00
 6.408571265637874603e-03 1.193491183221340179e-02 0.000000000000000000e+00
 6.405611522495746613e-03 1.178920269012451172e-02 0.000000000000000000e+00
 6.402651779353618622e-03 1.164349354803562164e-02 0.000000000000000000e+00
 6.399692036211490631e-03 1.149778440594673157e-02 0.000000000000000000e+00
 6.396731827408075333e-03 1.135207526385784149e-02 0.000000000000000000e+00
 6.393772084265947342e-03 1.120636612176895142e-02 0.000000000000000000e+00
 6.390812341123819351e-03 1.106065697968006134e-02 0.000000000000000000e+00
 6.387852597981691360e-03 1.091494876891374588e-02 0.000000000000000000e+00
 6.384892854839563370e-03 1.076923962682485580e-02 0.000000000000000000e+00
 6.381933111697435379e-03 1.062353048473596573e-02 0.000000000000000000e+00
 6.378973368555307388e-03 1.047782134264707565e-02 0.000000000000000000e+00
 6.376013625413179398e-03 1.033211220055818558e-02 0.000000000000000000e+00
 6.373053882271051407e-03 1.018640305846929550e-02 0.000000000000000000e+00
 6.370094139128923416e-03 1.004069391638040543e-02 0.000000000000000000e+00
 6.367133930325508118e-03 9.894985705614089966e-03 0.000000000000000000e+00
 6.364174187183380127e-03 9.749276563525199890e-03 0.000000000000000000e+00
 6.361214444041252136e-03 9.603567421436309814e-03 0.000000000000000000e+00
 6.358254700899124146e-03 9.457858279347419739e-03 0.000000000000000000e+00
 6.355294957756996155e-03 9.312149137258529663e-03 0.000000000000000000e+00
 6.740635726600885391e-03 1.824204623699188232e-02 0.000000000000000000e+00
 6.737272720783948898e-03 1.809437759220600128e-02 0.000000000000000000e+00
 6.733909249305725098e-03 1.794670894742012024e-02 0.000000000000000000e+00
 6.730545777827501297e-03 1.779904030263423920e-02 0.000000000000000000e+00
 6.727182306349277496e-03 1.765137165784835815e-02 0.000000000000000000e+00
 6.723818834871053696e-03 1.750370301306247711e-02 0.000000000000000000e+00
[...]
<CellData>
 <DataArray Name="pos.x" type="Float32" NumberOfComponents="1" format="ascii">
 6.426793783910396754e-03
 6.424061625168688526e-03
 6.421329466426980298e-03
 6.418597307685272937e-03
 6.415865148943566444e-03
 6.413132990201859951e-03
 6.410400831460153458e-03
 6.407668672718445230e-03
 6.404936513976737869e-03
 6.402204355235029641e-03
 6.399472196493321413e-03
 6.396740037751614920e-03
 6.394007879009906692e-03
 6.391275720268198464e-03
 6.388543561526492838e-03
 6.385811402784784610e-03
 6.383079244043077249e-03
 6.380347085301368154e-03
 6.377614926559660793e-03
 6.374882767817955168e-03
 6.372150609076247807e-03
 6.369418450334539579e-03
 6.366686291592832218e-03
 6.363954132851124858e-03
 6.361221974109416630e-03
 6.358489815367710137e-03
 6.355757656626003643e-03
 6.353025497884295415e-03
 6.350293339142586320e-03
 6.347561180400878959e-03
 6.344829021659173333e-03
 6.342096862917465105e-03
 6.339364704175758612e-03
 6.336632545434051252e-03
 6.333900386692343024e-03
 6.331168227950635663e-03
 6.328436069208928302e-03
 6.325703910467220074e-03
 6.322971751725511846e-03
 6.320239592983805353e-03
 6.317507434242097993e-03
 6.314775275500391499e-03
 6.312043116758683271e-03
 6.309310958016976778e-03
 6.306578799275269417e-03
 6.303846640533560322e-03
 6.301114481791852094e-03
 6.298382323050144734e-03
 6.295650164308438240e-03
 6.292918005566731747e-03
 6.290185846825023519e-03
 6.287453688083317026e-03
 6.284721529341609665e-03
 6.281989370599900570e-03
 6.279257211858192342e-03
 6.276525053116486716e-03
 6.273792894374779355e-03
 6.271060735633070260e-03
 6.268328576891363767e-03
 6.265596418149657273e-03
 6.635178274807797434e-03
 6.632016660360890228e-03
 6.628855045913981288e-03
 6.625693431467073215e-03
 6.622531817020166009e-03
 6.619370202573259671e-03
 6.616208588126351597e-03
 6.613046973679444392e-03
 6.609885359232536318e-03
 6.606723744785627378e-03
 6.603562130338719305e-03
 6.600400515891812099e-03
 6.597238901444904893e-03
 6.594077286997995085e-03
 6.590915672551088747e-03
 6.587754058104181541e-03
 6.584592443657272601e-03
 6.581430829210364528e-03
 6.578269214763456454e-03
 6.575107600316550983e-03
 6.571945985869642910e-03
 6.568784371422733970e-03
 6.565622756975826764e-03
 6.562461142528919558e-03
 6.559299528082010618e-03
 6.556137913635102545e-03
 6.552976299188195339e-03
 6.549814684741289000e-03
 6.546653070294379193e-03
 6.543491455847471119e-03
 6.540329841400564781e-03
 6.537168226953657575e-03
 6.534006612506750369e-03
 6.530844998059843164e-03
 6.527683383612934223e-03
 6.524521769166026150e-03
 6.521360154719118944e-03
 6.518198540272210004e-03
 6.515036925825302798e-03
 6.511875311378395592e-03
 6.508713696931487519e-03
 6.505552082484581181e-03
 6.502390468037673107e-03
 6.499228853590765902e-03
 6.496067239143857829e-03
 6.492905624696948888e-03
 6.489744010250040815e-03
 6.486582395803133609e-03
 6.483420781356226403e-03
 6.480259166909319198e-03
 6.477097552462410257e-03
 6.473935938015503051e-03
 6.470774323568595846e-03
 6.467612709121687772e-03
 6.464451094674779699e-03
 6.461289480227872493e-03
 6.458127865780965288e-03
 6.454966251334056347e-03
 6.451804636887148274e-03
 6.448643022440241068e-03
 6.841814165433003116e-03
 6.838275504111509043e-03
 6.834736842790014102e-03
 6.831198181468520030e-03
 6.827659520147025957e-03
 6.824120858825531016e-03
 6.820582197504036943e-03
 6.817043536182541136e-03
 6.813504874861045328e-03
 6.809966213539549520e-03
 6.806427552218056315e-03
 6.802888890896561375e-03
 6.799350229575069036e-03
 6.795811568253572361e-03
 6.792272906932077421e-03
 6.788734245610582481e-03
 6.785195584289087541e-03
 6.781656922967591733e-03
 6.778118261646097660e-03
 6.774579600324605322e-03
 6.771040939003110382e-03
 6.767502277681614574e-03
 6.763963616360119634e-03
 6.760424955038625561e-03
 6.756886293717130620e-03
 6.753347632395635680e-03
 6.749808971074142475e-03
 6.746270309752646667e-03
 6.742731648431150859e-03
 6.739192987109655052e-03
 6.735654325788160979e-03
 6.732115664466667773e-03
 6.728577003145174568e-03
 6.725038341823677893e-03
 6.721499680502183820e-03
 6.717961019180688879e-03
 6.714422357859194807e-03
 6.710883696537699866e-03
 6.707345035216204926e-03
 6.703806373894709986e-03
 6.700267712573215045e-03
 6.696729051251720105e-03
 6.693190389930226032e-03
 6.689651728608731959e-03
 6.686113067287237886e-03
 6.682574405965742946e-03
 6.679035744644248006e-03
 6.675497083322753065e-03
 6.671958422001257258e-03
 6.668419760679763185e-03
 6.664881099358268245e-03
 6.661342438036773304e-03
 6.657803776715278364e-03
 6.654265115393784291e-03
 6.650726454072290218e-03
 6.647187792750796145e-03
 6.643649131429301205e-03
 6.640110470107804530e-03
 6.636571808786309590e-03
 6.633033147464814649e-03
 7.046534682368526398e-03
 7.042672992418076358e-03
 7.038811302467627186e-03
 7.034949612517178014e-03
 7.031087922566727974e-03
 7.027226232616279669e-03
 7.023364542665831364e-03
 7.019502852715380457e-03
 7.015641162764933020e-03
 7.011779472814482980e-03
 7.007917782864032941e-03
 7.004056092913584636e-03
 7.000194402963136331e-03
 6.996332713012686291e-03
 6.992471023062237119e-03
 6.988609333111787947e-03
 6.984747643161339642e-03
 6.980885953210887868e-03
 6.977024263260438695e-03
 6.973162573309991258e-03
 6.969300883359542953e-03
 6.965439193409091179e-03
 6.961577503458642006e-03
 6.957715813508193702e-03
 6.953854123557743662e-03
 6.949992433607294490e-03
 6.946130743656847920e-03
 6.942269053706396145e-03
 6.938407363755946106e-03
 6.934545673805497801e-03
 6.930683983855047761e-03
 6.926822293904598589e-03
 6.922960603954149417e-03
 6.919098914003701112e-03
 6.915237224053251940e-03
 6.911375534102802767e-03
 6.907513844152353595e-03
 6.903652154201904423e-03
 6.899790464251456118e-03
 6.895928774301006078e-03
 6.892067084350556039e-03
 6.888205394400107734e-03
 6.884343704449658562e-03
 6.880482014499208522e-03
 6.876620324548759350e-03
 6.872758634598310178e-03
 6.868896944647861005e-03
 6.865035254697410966e-03
 6.861173564746960926e-03
 6.857311874796511754e-03
 6.853450184846064316e-03
 6.849588494895614277e-03
 6.845726804945165972e-03
 6.841865114994716800e-03
 6.838003425044269362e-03
 6.834141735093819323e-03
 6.830280045143369283e-03
 6.826418355192919243e-03
 6.822556665242469204e-03
 6.818694975292020899e-03
 7.249173048024556802e-03
 7.245043948761168209e-03
 7.240914849497779616e-03
 7.236785750234391024e-03
 7.232656650971002431e-03
 7.228527551707614705e-03
 7.224398452444226980e-03
 7.220269353180839254e-03
 7.216140253917449794e-03
 7.212011154654061201e-03
 7.207882055390671741e-03
 7.203752956127283148e-03
 7.199623856863896290e-03
 7.195494757600506830e-03
 7.191365658337118237e-03
 7.187236559073732246e-03
 7.183107459810345388e-03
 7.178978360546954193e-03
 7.174849261283565600e-03
 7.170720162020178742e-03
 7.166591062756791017e-03
 7.162461963493401557e-03
 7.158332864230013831e-03
 7.154203764966625238e-03
 7.150074665703234911e-03
 7.145945566439846318e-03
 7.141816467176460327e-03
 7.137687367913071734e-03
 7.133558268649682274e-03
 7.129429169386294549e-03
 7.125300070122907690e-03
 7.121170970859517363e-03
 7.117041871596128770e-03
 7.112912772332741045e-03
 7.108783673069353319e-03
 7.104654573805964726e-03
 7.100525474542577001e-03
 7.096396375279188408e-03
 7.092267276015799815e-03
 7.088138176752412090e-03
 7.084009077489024364e-03
 7.079879978225636639e-03
 7.075750878962247178e-03
 7.071621779698857718e-03
 7.067492680435468258e-03
 7.063363581172082267e-03
 7.059234481908692807e-03
 7.055105382645304214e-03
 7.050976283381915621e-03
 7.046847184118527029e-03
 7.042718084855140170e-03
 7.038588985591754180e-03
 7.034459886328364719e-03
 7.030330787064975259e-03
 7.026201687801588401e-03
 7.022072588538199808e-03
 7.017943489274810348e-03
 7.013814390011422623e-03
 7.009685290748034897e-03
 7.005556191484645437e-03
 7.449562480868719694e-03
 7.445223184793653415e-03
 7.440883888718587136e-03
 7.436544592643522592e-03
 7.432205296568456313e-03
 7.427866000493390033e-03
 7.423526704418325489e-03
 7.419187408343260945e-03
 7.414848112268192931e-03
 7.410508816193125785e-03
 7.406169520118061241e-03
 7.401830224042994961e-03
 7.397490927967931285e-03
 7.393151631892865006e-03
 7.388812335817798727e-03
 7.384473039742735917e-03
 7.380133743667668771e-03
 7.375794447592601624e-03
 7.371455151517537080e-03
 7.367115855442474270e-03
 7.362776559367409726e-03
 7.358437263292343447e-03
 7.354097967217276301e-03
 7.349758671142209154e-03
 7.345419375067143743e-03
 7.341080078992078331e-03
 7.336740782917013787e-03
 7.332401486841948375e-03
 7.328062190766881229e-03
 7.323722894691814950e-03
 7.319383598616750405e-03
 7.315044302541684126e-03
 7.310705006466617847e-03
 7.306365710391554170e-03
 7.302026414316488759e-03
 7.297687118241423347e-03
 7.293347822166357936e-03
 7.289008526091292524e-03
 7.284669230016228847e-03
 7.280329933941162568e-03
 7.275990637866096289e-03
 7.271651341791030877e-03
 7.267312045715964598e-03
 7.262972749640898319e-03
 7.258633453565832908e-03
 7.254294157490767496e-03
 7.249954861415702084e-03
 7.245615565340637540e-03
 7.241276269265569526e-03
 7.236936973190503247e-03
 7.232597677115440438e-03
 7.228258381040374159e-03
 7.223919084965309614e-03
 7.219579788890241601e-03
 7.215240492815177056e-03
 7.210901196740112512e-03
 7.206561900665047100e-03
 7.202222604589979954e-03
 7.197883308514913675e-03
 7.193544012439849131e-03
 7.647536195657334002e-03
 7.643045501034503170e-03
 7.638554806411670603e-03
 7.634064111788839771e-03
 7.629573417166008939e-03
 7.625082722543176372e-03
 7.620592027920343806e-03
 7.616101333297511239e-03
 7.611610638674680407e-03
 7.607119944051847840e-03
 7.602629249429015273e-03
 7.598138554806182707e-03
 7.593647860183351875e-03
 7.589157165560518441e-03
 7.584666470937688476e-03
 7.580175776314859379e-03
 7.575685081692025077e-03
 7.571194387069190776e-03
 7.566703692446359944e-03
 7.562212997823529979e-03
 7.557722303200700882e-03
 7.553231608577868315e-03
 7.548740913955033147e-03
 7.544250219332200580e-03
 7.539759524709368013e-03
 7.535268830086537181e-03
 7.530778135463708084e-03
 7.526287440840877252e-03
 7.521796746218040348e-03
 7.517306051595208649e-03
 7.512815356972377817e-03
 7.508324662349545250e-03
 7.503833967726714418e-03
 7.499343273103882719e-03
 7.494852578481051020e-03
 7.490361883858218453e-03
 7.485871189235386754e-03
 7.481380494612556789e-03
 7.476889799989725957e-03
 7.472399105366895125e-03
 7.467908410744061691e-03
 7.463417716121227390e-03
 7.458927021498396558e-03
 7.454436326875564858e-03
 7.449945632252732292e-03
 7.445454937629899725e-03
 7.440964243007067158e-03
 7.436473548384238061e-03
 7.431982853761405494e-03
 7.427492159138572060e-03
 7.423001464515740361e-03
 7.418510769892909529e-03
 7.414020075270078697e-03
 7.409529380647244395e-03
 7.405038686024413563e-03
 7.400547991401582731e-03
 7.396057296778751899e-03
 7.391566602155917598e-03
 7.387075907533086766e-03
 7.382585212910254199e-03
 7.842927403668131445e-03
 7.838345687566899284e-03
 7.833763971465665388e-03
 7.829182255364428022e-03
 7.824600539263194127e-03
 7.820018823161961966e-03
 7.815437107060724600e-03
 7.810855390959490704e-03
 7.806273674858258543e-03
 7.801691958757022913e-03
 7.797110242655785547e-03
 7.792528526554552519e-03
 7.787946810453317756e-03
 7.783365094352082125e-03
 7.778783378250851699e-03
 7.774201662149618670e-03
 7.769619946048383040e-03
 7.765038229947147409e-03
 7.760456513845912646e-03
 7.755874797744678750e-03
 7.751293081643446589e-03
 7.746711365542210959e-03
 7.742129649440974461e-03
 7.737547933339739697e-03
 7.732966217238503200e-03
 7.728384501137269304e-03
 7.723802785036038010e-03
 7.719221068934804114e-03
 7.714639352833567616e-03
 7.710057636732332853e-03
 7.705475920631099825e-03
 7.700894204529865061e-03
 7.696312488428631166e-03
 7.691730772327397270e-03
 7.687149056226161639e-03
 7.682567340124926009e-03
 7.677985624023692980e-03
 7.673403907922459952e-03
 7.668822191821226056e-03
 7.664240475719992160e-03
 7.659658759618755662e-03
 7.655077043517519164e-03
 7.650495327416286136e-03
 7.645913611315051372e-03
 7.641331895213816609e-03
 7.636750179112581846e-03
 7.632168463011346216e-03
 7.627586746910114922e-03
 7.623005030808879291e-03
 7.618423314707643661e-03
 7.613841598606411500e-03
 7.609259882505178471e-03
 7.604678166403942841e-03
 7.600096450302708077e-03
 7.595514734201473314e-03
 7.590933018100238551e-03
 7.586351301999005523e-03
 7.581769585897769892e-03
 7.577187869796535996e-03
 7.572606153695302100e-03
 8.035569312934282005e-03
 8.030958524740349630e-03
 8.026347736546417255e-03
 8.021736948352481411e-03
 8.017126160158545567e-03
 8.012515371964614927e-03
 8.007904583770679083e-03
 8.003293795576744973e-03
 7.998683007382812599e-03
 7.994072219188878489e-03
 7.989461430994944380e-03
 7.984850642801010270e-03
 7.980239854607076161e-03
 7.975629066413142051e-03
 7.971018278219209677e-03
 7.966407490025275567e-03
 7.961796701831343193e-03
 7.957185913637409083e-03
 7.952575125443474974e-03
 7.947964337249540864e-03
 7.943353549055608490e-03
 7.938742760861672645e-03
 7.934131972667740271e-03
 7.929521184473806161e-03
 7.924910396279870317e-03
 7.920299608085934473e-03
 7.915688819892003833e-03
 7.911078031698069724e-03
 7.906467243504133879e-03
 7.901856455310199770e-03
 7.897245667116267395e-03
 7.892634878922333286e-03
 7.888024090728400911e-03
 7.883413302534465067e-03
 7.878802514340530957e-03
 7.874191726146598583e-03
 7.869580937952664473e-03
 7.864970149758732099e-03
 7.860359361564797989e-03
 7.855748573370863880e-03
 7.851137785176929770e-03
 7.846526996982995661e-03
 7.841916208789061551e-03
 7.837305420595127442e-03
 7.832694632401191598e-03
 7.828083844207259223e-03
 7.823473056013326848e-03
 7.818862267819394474e-03
 7.814251479625460364e-03
 7.809640691431524520e-03
 7.805029903237592145e-03
 7.800419115043659771e-03
 7.795808326849725661e-03
 7.791197538655791552e-03
 7.786586750461856575e-03
 7.781975962267922466e-03
 7.777365174073987489e-03
 7.772754385880055114e-03
 7.768143597686121005e-03
 7.763532809492186895e-03
 8.225295128479689216e-03
 8.220718783876571414e-03
 8.216142439273451878e-03
 8.211566094670332341e-03
 8.206989750067212805e-03
 8.202413405464095003e-03
 8.197837060860978936e-03
 8.193260716257855930e-03
 8.188684371654738128e-03
 8.184108027051618592e-03
 8.179531682448497321e-03
 8.174955337845377784e-03
 8.170378993242259982e-03
 8.165802648639142181e-03
 8.161226304036022644e-03
 8.156649959432903108e-03
 8.152073614829785306e-03
 8.147497270226664035e-03
 8.142920925623544498e-03
 8.138344581020428431e-03
 8.133768236417310629e-03
 8.129191891814191093e-03
 8.124615547211071556e-03
 8.120039202607952020e-03
 8.115462858004830748e-03
 8.110886513401711212e-03
 8.106310168798595145e-03
 8.101733824195475608e-03
 8.097157479592356072e-03
 8.092581134989234801e-03
 8.088004790386116999e-03
 8.083428445782999197e-03
 8.078852101179881395e-03
 8.074275756576760124e-03
 8.069699411973640588e-03
 8.065123067370522786e-03
 8.060546722767403249e-03
 8.055970378164283713e-03
 8.051394033561164176e-03
 8.046817688958046375e-03
 8.042241344354926838e-03
 8.037664999751805567e-03
 8.033088655148689500e-03
 8.028512310545569963e-03
 8.023935965942450427e-03
 8.019359621339330890e-03
 8.014783276736211354e-03
 8.010206932133093552e-03
 8.005630587529974015e-03
 8.001054242926852744e-03
 7.996477898323736677e-03
 7.991901553720617141e-03
 7.987325209117497604e-03
 7.982748864514379802e-03
 7.978172519911260266e-03
 7.973596175308142464e-03
 7.969019830705022928e-03
 7.964443486101903391e-03
 7.959867141498783855e-03
 7.955290796895664318e-03
 8.411938052555448589e-03
 8.407461227978845625e-03
 8.402984403402242661e-03
 8.398507578825639697e-03
 8.394030754249034998e-03
 8.389553929672435503e-03
 8.385077105095832539e-03
 8.380600280519229575e-03
 8.376123455942628346e-03
 8.371646631366025382e-03
 8.367169806789420683e-03
 8.362692982212817719e-03
 8.358216157636216490e-03
 8.353739333059613525e-03
 8.349262508483008827e-03
 8.344785683906407597e-03
 8.340308859329806368e-03
 8.335832034753199934e-03
 8.331355210176596970e-03
 8.326878385599997476e-03
 8.322401561023394512e-03
 8.317924736446791548e-03
 8.313447911870190318e-03
 8.308971087293587354e-03
 8.304494262716982655e-03
 8.300017438140377957e-03
 8.295540613563776727e-03
 8.291063788987175498e-03
 8.286586964410570799e-03
 8.282110139833967835e-03
 8.277633315257364871e-03
 8.273156490680763642e-03
 8.268679666104162412e-03
 8.264202841527559448e-03
 8.259726016950956484e-03
 8.255249192374353520e-03
 8.250772367797750556e-03
 8.246295543221147592e-03
 8.241818718644544628e-03
 8.237341894067941664e-03
 8.232865069491340435e-03
 8.228388244914737470e-03
 8.223911420338132772e-03
 8.219434595761531542e-03
 8.214957771184930313e-03
 8.210480946608325614e-03
 8.206004122031722650e-03
 8.201527297455121421e-03
 8.197050472878516722e-03
 8.192573648301912023e-03
 8.188096823725310794e-03
 8.183619999148709565e-03
 8.179143174572106600e-03
 8.174666349995503636e-03
 8.170189525418900672e-03
 8.165712700842299443e-03
 8.161235876265698214e-03
 8.156759051689095250e-03
 8.152282227112490551e-03
 8.147805402535887587e-03
 8.595331284877362477e-03
 8.591020612444585924e-03
 8.586709940011805903e-03
 8.582399267579027616e-03
 8.578088595146249329e-03
 8.573777922713472777e-03
 8.569467250280692755e-03
 8.565156577847916203e-03
 8.560845905415139651e-03
 8.556535232982359629e-03
 8.552224560549581342e-03
 8.547913888116803055e-03
 8.543603215684026503e-03
 8.539292543251246481e-03
 8.534981870818468194e-03
 8.530671198385693377e-03
 8.526360525952915090e-03
 8.522049853520136803e-03
 8.517739181087356781e-03
 8.513428508654581964e-03
 8.509117836221803677e-03
 8.504807163789023655e-03
 8.500496491356247103e-03
 8.496185818923470551e-03
 8.491875146490690529e-03
 8.487564474057910507e-03
 8.483253801625135690e-03
 8.478943129192357403e-03
 8.474632456759577381e-03
 8.470321784326797360e-03
 8.466011111894020807e-03
 8.461700439461245990e-03
 8.457389767028467703e-03
 8.453079094595687681e-03
 8.448768422162911129e-03
 8.444457749730132842e-03
 8.440147077297354555e-03
 8.435836404864578003e-03
 8.431525732431799716e-03
 8.427215059999021429e-03
 8.422904387566244877e-03
 8.418593715133466590e-03
 8.414283042700688303e-03
 8.409972370267910016e-03
 8.405661697835129995e-03
 8.401351025402353442e-03
 8.397040352969575155e-03
 8.392729680536798603e-03
 8.388419008104022051e-03
 8.384108335671240295e-03
 8.379797663238462008e-03
 8.375486990805687190e-03
 8.371176318372908903e-03
 8.366865645940128882e-03
 8.362554973507350595e-03
 8.358244301074574042e-03
 8.353933628641799225e-03
 8.349622956209020938e-03
 8.345312283776240916e-03
 8.341001611343462629e-03
 8.775308022864442004e-03
 8.771231685780820145e-03
 8.767155348697198286e-03
 8.763079011613578162e-03
 8.759002674529958038e-03
 8.754926337446339649e-03
 8.750850000362716055e-03
 8.746773663279094196e-03
 8.742697326195474072e-03
 8.738620989111852214e-03
 8.734544652028230355e-03
 8.730468314944610231e-03
 8.726391977860991842e-03
 8.722315640777369983e-03
 8.718239303693749859e-03
 8.714162966610129735e-03
 8.710086629526507876e-03
 8.706010292442887752e-03
 8.701933955359265893e-03
 8.697857618275645769e-03
 8.693781281192029115e-03
 8.689704944108403786e-03
 8.685628607024783662e-03
 8.681552269941165273e-03
 8.677475932857541679e-03
 8.673399595773919821e-03
 8.669323258690301431e-03
 8.665246921606681307e-03
 8.661170584523057714e-03
 8.657094247439437590e-03
 8.653017910355817466e-03
 8.648941573272199076e-03
 8.644865236188577218e-03
 8.640788899104957094e-03
 8.636712562021335235e-03
 8.632636224937715111e-03
 8.628559887854093252e-03
 8.624483550770473128e-03
 8.620407213686853004e-03
 8.616330876603231145e-03
 8.612254539519609287e-03
 8.608178202435989163e-03
 8.604101865352369038e-03
 8.600025528268747180e-03
 8.595949191185127056e-03