<VTKFile type="UnstructuredGrid" byte_order="BigEndian">
<UnstructuredGrid><Piece NumberOfPoints="1281" NumberOfCells="1200">
<Points>
 <DataArray type="Float32" NumberOfComponents="3" format="ascii">
 2.037500031292438507e-03 1.262500043958425522e-02 0.000000000000000000e+00
 2.052357187494635582e-03 1.253243442624807358e-02 0.000000000000000000e+00
 2.067214343696832657e-03 1.243986934423446655e-02 0.000000000000000000e+00
 2.082071499899029732e-03 1.234730333089828491e-02 0.000000000000000000e+00
 2.096928888931870461e-03 1.225473824888467789e-02 0.000000000000000000e+00
 2.111786045134067535e-03 1.216217223554849625e-02 0.000000000000000000e+00
 2.126643201336264610e-03 1.206960715353488922e-02 0.000000000000000000e+00
 2.141500357538461685e-03 1.197704114019870758e-02 0.000000000000000000e+00
 2.156357513740658760e-03 1.188447605818510056e-02 0.000000000000000000e+00
 2.171214902773499489e-03 1.179191004484891891e-02 0.000000000000000000e+00
 2.186072058975696564e-03 1.169934496283531189e-02 0.000000000000000000e+00
 2.200929215177893639e-03 1.160677894949913025e-02 0.000000000000000000e+00
 2.215786371380090714e-03 1.151421386748552322e-02 0.000000000000000000e+00
 2.230643527582287788e-03 1.142164785414934158e-02 0.000000000000000000e+00
 2.245500916615128517e-03 1.132908277213573456e-02 0.000000000000000000e+00
 2.260358072817325592e-03 1.123651675879955292e-02 0.000000000000000000e+00
 2.275215229019522667e-03 1.114395167678594589e-02 0.000000000000000000e+00
 2.290072385221719742e-03 1.105138566344976425e-02 0.000000000000000000e+00
 2.304929541423916817e-03 1.095882058143615723e-02 0.000000000000000000e+00
 2.319786930456757545e-03 1.086625456809997559e-02 0.000000000000000000e+00
 2.334644086658954620e-03 1.077368948608636856e-02 0.000000000000000000e+00
 2.349501242861151695e-03 1.068112347275018692e-02 0.000000000000000000e+00
 2.364358399063348770e-03 1.058855839073657990e-02 0.000000000000000000e+00
 2.379215788096189499e-03 1.049599237740039825e-02 0.000000000000000000e+00
 2.394072944298386574e-03 1.040342729538679123e-02 0.000000000000000000e+00
 2.408930100500583649e-03 1.031086128205060959e-02 0.000000000000000000e+00
 2.423787256702780724e-03 1.021829620003700256e-02 0.000000000000000000e+00
 2.438644412904977798e-03 1.012573018670082092e-02 0.000000000000000000e+00
 2.453501801937818527e-03 1.003316510468721390e-02 0.000000000000000000e+00
 2.468358958140015602e-03 9.940599091351032257e-03 0.000000000000000000e+00
 2.483216114342212677e-03 9.848034009337425232e-03 0.000000000000000000e+00
 2.498073270544409752e-03 9.755467996001243591e-03 0.000000000000000000e+00
 2.512930426746606827e-03 9.662902913987636566e-03 0.000000000000000000e+00
 2.527787815779447556e-03 9.570336900651454926e-03 0.000000000000000000e+00
 2.542644971981644630e-03 9.477771818637847900e-03 0.000000000000000000e+00
 2.557502128183841705e-03 9.385205805301666260e-03 0.000000000000000000e+00
 2.572359284386038780e-03 9.292640723288059235e-03 0.000000000000000000e+00
 2.587216440588235855e-03 9.200074709951877594e-03 0.000000000000000000e+00
 2.602073829621076584e-03 9.107509627938270569e-03 0.000000000000000000e+00
 2.616930985823273659e-03 9.014943614602088928e-03 0.000000000000000000e+00
 2.631788142025470734e-03 8.922378532588481903e-03 0.000000000000000000e+00
 2.646645298227667809e-03 8.829813450574874878e-03 0.000000000000000000e+00
 2.661502454429864883e-03 8.737247437238693237e-03 0.000000000000000000e+00
 2.676359843462705612e-03 8.644682355225086212e-03 0.000000000000000000e+00
 2.691216999664902687e-03 8.552116341888904572e-03 0.000000000000000000e+00
 2.706074155867099762e-03 8.459551259875297546e-03 0.000000000000000000e+00
 2.720931312069296837e-03 8.366985246539115906e-03 0.000000000000000000e+00
 2.735788468271493912e-03 8.274420164525508881e-03 0.000000000000000000e+00
 2.750645857304334641e-03 8.181854151189327240e-03 0.000000000000000000e+00
 2.765503013506531715e-03 8.089289069175720215e-03 0.000000000000000000e+00
 2.780360169708728790e-03 7.996723055839538574e-03 0.000000000000000000e+00
 2.795217325910925865e-03 7.904157973825931549e-03 0.000000000000000000e+00
 2.810074482113122940e-03 7.811591960489749908e-03 0.000000000000000000e+00
 2.824931871145963669e-03 7.719026412814855576e-03 0.000000000000000000e+00
 2.839789027348160744e-03 7.626460865139961243e-03 0.000000000000000000e+00
 2.854646183550357819e-03 7.533895317465066910e-03 0.000000000000000000e+00
 2.869503339752554893e-03 7.441329769790172577e-03 0.000000000000000000e+00
 2.884360495954751968e-03 7.348764222115278244e-03 0.000000000000000000e+00
 2.899217884987592697e-03 7.256198674440383911e-03 0.000000000000000000e+00
 2.914075041189789772e-03 7.163633126765489578e-03 0.000000000000000000e+00
 2.928932197391986847e-03 7.071067579090595245e-03 0.000000000000000000e+00
 2.245573559775948524e-03 1.293269731104373932e-02 0.000000000000000000e+00
 2.259299624711275101e-03 1.283729448914527893e-02 0.000000000000000000e+00
 2.273025456815958023e-03 1.274189166724681854e-02 0.000000000000000000e+00
 2.286751288920640945e-03 1.264648884534835815e-02 0.000000000000000000e+00
 2.300477121025323868e-03 1.255108695477247238e-02 0.000000000000000000e+00
 2.314202953130006790e-03 1.245568413287401199e-02 0.000000000000000000e+00
 2.327929018065333366e-03 1.236028131097555161e-02 0.000000000000000000e+00
 2.341654850170016289e-03 1.226487848907709122e-02 0.000000000000000000e+00
 2.355380682274699211e-03 1.216947566717863083e-02 0.000000000000000000e+00
 2.369106514379382133e-03 1.207407284528017044e-02 0.000000000000000000e+00
 2.382832346484065056e-03 1.197867002338171005e-02 0.000000000000000000e+00
 2.396558411419391632e-03 1.188326813280582428e-02 0.000000000000000000e+00
 2.410284243524074554e-03 1.178786531090736389e-02 0.000000000000000000e+00
 2.424010075628757477e-03 1.169246248900890350e-02 0.000000000000000000e+00
 2.437735907733440399e-03 1.159705966711044312e-02 0.000000000000000000e+00
 2.451461739838123322e-03 1.150165684521198273e-02 0.000000000000000000e+00
 2.465187804773449898e-03 1.140625402331352234e-02 0.000000000000000000e+00
 2.478913636878132820e-03 1.131085120141506195e-02 0.000000000000000000e+00
 2.492639468982815742e-03 1.121544931083917618e-02 0.000000000000000000e+00
 2.506365301087498665e-03 1.112004648894071579e-02 0.000000000000000000e+00
 2.520091133192181587e-03 1.102464366704225540e-02 0.000000000000000000e+00
 2.533817198127508163e-03 1.092924084514379501e-02 0.000000000000000000e+00
 2.547543030232191086e-03 1.083383802324533463e-02 0.000000000000000000e+00
 2.561268862336874008e-03 1.073843520134687424e-02 0.000000000000000000e+00
 2.574994694441556931e-03 1.064303237944841385e-02 0.000000000000000000e+00
 2.588720526546239853e-03 1.054763048887252808e-02 0.000000000000000000e+00
 2.602446591481566429e-03 1.045222766697406769e-02 0.000000000000000000e+00
 2.616172423586249352e-03 1.035682484507560730e-02 0.000000000000000000e+00
 2.629898255690932274e-03 1.026142202317714691e-02 0.000000000000000000e+00
 2.643624087795615196e-03 1.016601920127868652e-02 0.000000000000000000e+00
 2.657349919900298119e-03 1.007061637938022614e-02 0.000000000000000000e+00
 2.671075984835624695e-03 9.975213557481765747e-03 0.000000000000000000e+00
 2.684801816940307617e-03 9.879811666905879974e-03 0.000000000000000000e+00
 2.698527649044990540e-03 9.784408845007419586e-03 0.000000000000000000e+00
 2.712253481149673462e-03 9.689006023108959198e-03 0.000000000000000000e+00
 2.725979313254356384e-03 9.593603201210498810e-03 0.000000000000000000e+00
 2.739705378189682961e-03 9.498200379312038422e-03 0.000000000000000000e+00
 2.753431210294365883e-03 9.402797557413578033e-03 0.000000000000000000e+00
 2.767157042399048805e-03 9.307394735515117645e-03 0.000000000000000000e+00
 2.780882874503731728e-03 9.211992844939231873e-03 0.000000000000000000e+00
 2.794608706608414650e-03 9.116590023040771484e-03 0.000000000000000000e+00
 2.808334771543741226e-03 9.021187201142311096e-03 0.000000000000000000e+00
 2.822060603648424149e-03 8.925784379243850708e-03 0.000000000000000000e+00
 2.835786435753107071e-03 8.830381557345390320e-03 0.000000000000000000e+00
 2.849512267857789993e-03 8.734978735446929932e-03 0.000000000000000000e+00
 2.863238099962472916e-03 8.639575913548469543e-03 0.000000000000000000e+00
 2.876964164897799492e-03 8.544174022972583771e-03 0.000000000000000000e+00
 2.890689997002482414e-03 8.448771201074123383e-03 0.000000000000000000e+00
 2.904415829107165337e-03 8.353368379175662994e-03 0.000000000000000000e+00
 2.918141661211848259e-03 8.257965557277202606e-03 0.000000000000000000e+00
 2.931867493316531181e-03 8.162562735378742218e-03 0.000000000000000000e+00
 2.945593558251857758e-03 8.067159913480281830e-03 0.000000000000000000e+00
 2.959319390356540680e-03 7.971757091581821442e-03 0.000000000000000000e+00
 2.973045222461223602e-03 7.876355201005935669e-03 0.000000000000000000e+00
 2.986771054565906525e-03 7.780951913446187973e-03 0.000000000000000000e+00
 3.000496886670589447e-03 7.685549557209014893e-03 0.000000000000000000e+00
 3.014222951605916023e-03 7.590146735310554504e-03 0.000000000000000000e+00
 3.027948783710598946e-03 7.494743913412094116e-03 0.000000000000000000e+00
 3.041674615815281868e-03 7.399341557174921036e-03 0.000000000000000000e+00
 3.055400447919964790e-03 7.303938735276460648e-03 0.000000000000000000e+00
 3.069126280024647713e-03 7.208535913378000259e-03 0.000000000000000000e+00
 2.455307869240641594e-03 1.323689054697751999e-02 0.000000000000000000e+00
 2.467919141054153442e-03 1.313866302371025085e-02 0.000000000000000000e+00
 2.480530645698308945e-03 1.304043550044298172e-02 0.000000000000000000e+00
 2.493142150342464447e-03 1.294220704585313797e-02 0.000000000000000000e+00
 2.505753422155976295e-03 1.284397952258586884e-02 0.000000000000000000e+00
 2.518364926800131798e-03 1.274575199931859970e-02 0.000000000000000000e+00
[...]
<CellData>
 <DataArray Name="pos.x" type="Float32" NumberOfComponents="1" format="ascii">
 2.148682586947357753e-03
 2.162974128029571553e-03
 2.177265669111785353e-03
 2.191557210194000020e-03
 2.205848751276213819e-03
 2.220140292358427619e-03
 2.234431833440641418e-03
 2.248723374522855652e-03
 2.263014915605069018e-03
 2.277306456687282817e-03
 2.291597997769496617e-03
 2.305889538851709983e-03
 2.320181079933924650e-03
 2.334472621016138449e-03
 2.348764162098351815e-03
 2.363055703180566049e-03
 2.377347244262779848e-03
 2.391638785344993214e-03
 2.405930326427207014e-03
 2.420221867509421681e-03
 2.434513408591635480e-03
 2.448804949673847979e-03
 2.463096490756062212e-03
 2.477388031838276879e-03
 2.491679572920490679e-03
 2.505971114002704479e-03
 2.520262655084919146e-03
 2.534554196167132945e-03
 2.548845737249345444e-03
 2.563137278331559243e-03
 2.577428819413774344e-03
 2.591720360495988144e-03
 2.606011901578201510e-03
 2.620303442660415309e-03
 2.634594983742629543e-03
 2.648886524824843776e-03
 2.663178065907057142e-03
 2.677469606989270508e-03
 2.691761148071484741e-03
 2.706052689153698107e-03
 2.720344230235912340e-03
 2.734635771318126574e-03
 2.748927312400340807e-03
 2.763218853482554607e-03
 2.777510394564768406e-03
 2.791801935646982206e-03
 2.806093476729196005e-03
 2.820385017811409371e-03
 2.834676558893622737e-03
 2.848968099975836971e-03
 2.863259641058051638e-03
 2.877551182140265437e-03
 2.891842723222479671e-03
 2.906134264304693470e-03
 2.920425805386906836e-03
 2.934717346469120202e-03
 2.949008887551334002e-03
 2.963300428633547801e-03
 2.977591969715761601e-03
 2.991883510797975834e-03
 2.357025045464174531e-03
 2.370193691080022241e-03
 2.383362336695870384e-03
 2.396530982311718093e-03
 2.409699627927566236e-03
 2.422868273543414379e-03
 2.436036919159261654e-03
 2.449205564775108930e-03
 2.462374210390957073e-03
 2.475542856006804349e-03
 2.488711501622651624e-03
 2.501880147238498900e-03
 2.515048792854347043e-03
 2.528217438470194752e-03
 2.541386084086042461e-03
 2.554554729701890604e-03
 2.567723375317737880e-03
 2.580892020933585156e-03
 2.594060666549432431e-03
 2.607229312165281008e-03
 2.620397957781128717e-03
 2.633566603396975125e-03
 2.646735249012823268e-03
 2.659903894628671845e-03
 2.673072540244519554e-03
 2.686241185860366830e-03
 2.699409831476215840e-03
 2.712578477092063116e-03
 2.725747122707909524e-03
 2.738915768323756800e-03
 2.752084413939605376e-03
 2.765253059555453519e-03
 2.778421705171301229e-03
 2.791590350787148504e-03
 2.804758996402996647e-03
 2.817927642018843923e-03
 2.831096287634691198e-03
 2.844264933250539341e-03
 2.857433578866386617e-03
 2.870602224482234760e-03
 2.883770870098082469e-03
 2.896939515713929745e-03
 2.910108161329777888e-03
 2.923276806945626031e-03
 2.936445452561473740e-03
 2.949614098177320582e-03
 2.962782743793168725e-03
 2.975951389409016434e-03
 2.989120035024862843e-03
 3.002288680640710986e-03
 3.015457326256559996e-03
 3.028625971872407271e-03
 3.041794617488254981e-03
 3.054963263104101823e-03
 3.068131908719949966e-03
 3.081300554335797241e-03
 3.094469199951644517e-03
 3.107637845567492660e-03
 3.120806491183340369e-03
 3.133975136799188078e-03
 2.566953159185917342e-03
 2.579016704120253370e-03
 2.591080249054588964e-03
 2.603143793988925425e-03
 2.615207338923261019e-03
 2.627270883857596613e-03
 2.639334428791931773e-03
 2.651397973726266934e-03
 2.663461518660602961e-03
 2.675525063594937254e-03
 2.687588608529272848e-03
 2.699652153463609310e-03
 2.711715698397944470e-03
 2.723779243332279630e-03
 2.735842788266614790e-03
 2.747906333200950818e-03
 2.759969878135286412e-03
 2.772033423069621139e-03
 2.784096968003956299e-03
 2.796160512938293194e-03
 2.808224057872628788e-03
 2.820287602806964382e-03
 2.832351147741299542e-03
 2.844414692675635570e-03
 2.856478237609970730e-03
 2.868541782544305890e-03
 2.880605327478643219e-03
 2.892668872412977946e-03
 2.904732417347312239e-03
 2.916795962281648266e-03
 2.928859507215983860e-03
 2.940923052150319454e-03
 2.952986597084654614e-03
 2.965050142018990642e-03
 2.977113686953326670e-03
 2.989177231887662264e-03
 3.001240776821996990e-03
 3.013304321756332151e-03
 3.025367866690668178e-03
 3.037431411625004206e-03
 3.049494956559339366e-03
 3.061558501493674526e-03
 3.073622046428010554e-03
 3.085685591362345714e-03
 3.097749136296681742e-03
 3.109812681231016902e-03
 3.121876226165352496e-03
 3.133939771099688090e-03
 3.146003316034022817e-03
 3.158066860968359278e-03
 3.170130405902695306e-03
 3.182193950837030466e-03
 3.194257495771366494e-03
 3.206321040705701220e-03
 3.218384585640036814e-03
 3.230448130574371975e-03
 3.242511675508707569e-03
 3.254575220443043163e-03
 3.266638765377378757e-03
 3.278702310311714350e-03
 2.778300283288115662e-03
 2.789278388926848262e-03
 2.800256494565579995e-03
 2.811234600204312595e-03
 2.822212705843044761e-03
 2.833190811481776927e-03
 2.844168917120509094e-03
 2.855147022759241260e-03
 2.866125128397973426e-03
 2.877103234036704725e-03
 2.888081339675436458e-03
 2.899059445314169491e-03
 2.910037550952901224e-03
 2.921015656591632523e-03
 2.931993762230364689e-03
 2.942971867869097289e-03
 2.953949973507829022e-03
 2.964928079146560320e-03
 2.975906184785292487e-03
 2.986884290424025954e-03
 2.997862396062757687e-03
 3.008840501701489853e-03
 3.019818607340222019e-03
 3.030796712978954185e-03
 3.041774818617685484e-03
 3.052752924256417651e-03
 3.063731029895150684e-03
 3.074709135533881983e-03
 3.085687241172612415e-03
 3.096665346811344581e-03
 3.107643452450077615e-03
 3.118621558088809347e-03
 3.129599663727541514e-03
 3.140577769366274113e-03
 3.151555875005007147e-03
 3.162533980643738880e-03
 3.173512086282470179e-03
 3.184490191921202345e-03
 3.195468297559934077e-03
 3.206446403198666244e-03
 3.217424508837397976e-03
 3.228402614476130576e-03
 3.239380720114862309e-03
 3.250358825753594041e-03
 3.261336931392326641e-03
 3.272315037031058374e-03
 3.283293142669790540e-03
 3.294271248308522707e-03
 3.305249353947254439e-03
 3.316227459585986172e-03
 3.327205565224718338e-03
 3.338183670863451372e-03
 3.349161776502184405e-03
 3.360139882140915704e-03
 3.371117987779647437e-03
 3.382096093418379169e-03
 3.393074199057111336e-03
 3.404052304695843068e-03
 3.415030410334575668e-03
 3.426008515973307401e-03
 2.990899764629162925e-03
 3.000813942324990352e-03
 3.010728120020816044e-03
 3.020642297716642603e-03
 3.030556475412470030e-03
 3.040470653108297457e-03
 3.050384830804124883e-03
 3.060299008499951443e-03
 3.070213186195778002e-03
 3.080127363891604561e-03
 3.090041541587431120e-03
 3.099955719283257680e-03
 3.109869896979084239e-03
 3.119784074674911666e-03
 3.129698252370737791e-03
 3.139612430066564784e-03
 3.149526607762391343e-03
 3.159440785458217035e-03
 3.169354963154044028e-03
 3.179269140849872756e-03
 3.189183318545699315e-03
 3.199097496241525441e-03
 3.209011673937352000e-03
 3.218925851633178559e-03
 3.228840029329005552e-03
 3.238754207024832545e-03
 3.248668384720659538e-03
 3.258582562416486098e-03
 3.268496740112311356e-03
 3.278410917808138782e-03
 3.288325095503965775e-03
 3.298239273199791467e-03
 3.308153450895618894e-03
 3.318067628591445887e-03
 3.327981806287273314e-03
 3.337895983983099873e-03
 3.347810161678926866e-03
 3.357724339374753859e-03
 3.367638517070579984e-03
 3.377552694766406544e-03
 3.387466872462233103e-03
 3.397381050158059662e-03
 3.407295227853886655e-03
 3.417209405549713648e-03
 3.427123583245540207e-03
 3.437037760941366767e-03
 3.446951938637193326e-03
 3.456866116333020753e-03
 3.466780294028847312e-03
 3.476694471724673004e-03
 3.486608649420500430e-03
 3.496522827116327857e-03
 3.506437004812155284e-03
 3.516351182507981843e-03
 3.526265360203807535e-03
 3.536179537899634094e-03
 3.546093715595461521e-03
 3.556007893291287646e-03
 3.565922070987114639e-03
 3.575836248682942066e-03
 3.204584941932094727e-03
 3.213458536733784787e-03
 3.222332131535473546e-03
 3.231205726337162305e-03
 3.240079321138851498e-03
 3.248952915940541558e-03
 3.257826510742231185e-03
 3.266700105543919944e-03
 3.275573700345609136e-03
 3.284447295147298329e-03
 3.293320889948987088e-03
 3.302194484750676281e-03
 3.311068079552365907e-03
 3.319941674354055534e-03
 3.328815269155744726e-03
 3.337688863957433485e-03
 3.346562458759122678e-03
 3.355436053560811004e-03
 3.364309648362500196e-03
 3.373183243164190690e-03
 3.382056837965880317e-03
 3.390930432767568642e-03
 3.399804027569257401e-03
 3.408677622370946594e-03
 3.417551217172635353e-03
 3.426424811974324979e-03
 3.435298406776015039e-03
 3.444172001577704232e-03
 3.453045596379392124e-03
 3.461919191181081750e-03
 3.470792785982770943e-03
 3.479666380784459702e-03
 3.488539975586149762e-03
 3.497413570387838955e-03
 3.506287165189528581e-03
 3.515160759991217774e-03
 3.524034354792906533e-03
 3.532907949594595726e-03
 3.541781544396285352e-03
 3.550655139197974111e-03
 3.559528733999663304e-03
 3.568402328801352497e-03
 3.577275923603041689e-03
 3.586149518404730882e-03
 3.595023113206420075e-03
 3.603896708008109268e-03
 3.612770302809798894e-03
 3.621643897611488520e-03
 3.630517492413176846e-03
 3.639391087214866038e-03
 3.648264682016556099e-03
 3.657138276818246159e-03
 3.666011871619934484e-03
 3.674885466421623243e-03
 3.683759061223311568e-03
 3.692632656025001195e-03
 3.701506250826690388e-03
 3.710379845628379580e-03
 3.719253440430069640e-03
 3.728127035231758833e-03
 3.419189145969494734e-03
 3.427047320720980929e-03
 3.434905495472468425e-03
 3.442763670223955921e-03
 3.450621844975442117e-03
 3.458480019726929179e-03
 3.466338194478416242e-03
 3.474196369229903304e-03
 3.482054543981390800e-03
 3.489912718732878297e-03
 3.497770893484364492e-03
 3.505629068235851555e-03
 3.513487242987339918e-03
 3.521345417738826113e-03
 3.529203592490312742e-03
 3.537061767241800238e-03
 3.544919941993286867e-03
 3.552778116744773930e-03
 3.560636291496260993e-03
 3.568494466247748922e-03
 3.576352640999235985e-03
 3.584210815750722614e-03
 3.592068990502209243e-03
 3.599927165253695872e-03
 3.607785340005182067e-03
 3.615643514756669129e-03
 3.623501689508158360e-03
 3.631359864259645423e-03
 3.639218039011130751e-03
 3.647076213762617380e-03
 3.654934388514105310e-03
 3.662792563265592806e-03
 3.670650738017079869e-03
 3.678508912768566931e-03
 3.686367087520053126e-03
 3.694225262271540623e-03
 3.702083437023028119e-03
 3.709941611774515181e-03
 3.717799786526001377e-03
 3.725657961277488873e-03
 3.733516136028975935e-03
 3.741374310780462564e-03
 3.749232485531949627e-03
 3.757090660283436689e-03
 3.764948835034923752e-03
 3.772807009786410815e-03
 3.780665184537898311e-03
 3.788523359289385807e-03
 3.796381534040872002e-03
 3.804239708792359065e-03
 3.812097883543846127e-03
 3.819956058295334057e-03
 3.827814233046821120e-03
 3.835672407798307315e-03
 3.843530582549795245e-03
 3.851388757301282308e-03
 3.859246932052768503e-03
 3.867105106804255999e-03
 3.874963281555743062e-03
 3.882821456307229691e-03
 3.634545699751468018e-03
 3.641415419566901030e-03
 3.648285139382335344e-03
 3.655154859197769224e-03
 3.662024579013202670e-03
 3.668894298828637417e-03
 3.675764018644071297e-03
 3.682633738459503876e-03
 3.689503458274938190e-03
 3.696373178090371636e-03
 3.703242897905804649e-03
 3.710112617721238529e-03
 3.716982337536673710e-03
 3.723852057352106722e-03
 3.730721777167540602e-03
 3.737591496982974916e-03
 3.744461216798408796e-03
 3.751330936613841809e-03
 3.758200656429275689e-03
 3.765070376244710002e-03
 3.771940096060144316e-03
 3.778809815875577762e-03
 3.785679535691011208e-03
 3.792549255506444655e-03
 3.799418975321877667e-03
 3.806288695137311547e-03
 3.813158414952746295e-03
 3.820028134768180608e-03
 3.826897854583613187e-03
 3.833767574399046633e-03
 3.840637294214481814e-03
 3.847507014029915694e-03
 3.854376733845348707e-03
 3.861246453660782587e-03
 3.868116173476216033e-03
 3.874985893291649480e-03
 3.881855613107084227e-03
 3.888725332922517673e-03
 3.895595052737950252e-03
 3.902464772553384999e-03
 3.909334492368818879e-03
 3.916204212184252326e-03
 3.923073931999686639e-03
 3.929943651815120086e-03
 3.936813371630553532e-03
 3.943683091445987846e-03
 3.950552811261421292e-03
 3.957422531076855605e-03
 3.964292250892289052e-03
 3.971161970707722498e-03
 3.978031690523155944e-03
 3.984901410338590258e-03
 3.991771130154024572e-03
 3.998640849969458885e-03
 4.005510569784893199e-03
 4.012380289600325778e-03
 4.019250009415759224e-03
 4.026119729231193538e-03
 4.032989449046626984e-03
 4.039859168862060430e-03
 3.850487918716611561e-03
 3.856397935837334399e-03
 3.862307952958056803e-03
 3.868217970078777906e-03
 3.874127987199499010e-03
 3.880038004320223149e-03
 3.885948021440945553e-03
 3.891858038561667090e-03
 3.897768055682388627e-03
 3.903678072803109730e-03
 3.909588089923830834e-03
 3.915498107044553672e-03
 3.921408124165275642e-03
 3.927318141285998480e-03
 3.933228158406720451e-03
 3.939138175527442422e-03
 3.945048192648164392e-03
 3.950958209768885496e-03
 3.956868226889608334e-03
 3.962778244010331172e-03
 3.968688261131054010e-03
 3.974598278251775113e-03
 3.980508295372497084e-03
 3.986418312493219054e-03
 3.992328329613940158e-03
 3.998238346734662128e-03
 4.004148363855384966e-03
 4.010058380976106937e-03
 4.015968398096828908e-03
 4.021878415217551746e-03
 4.027788432338273716e-03
 4.033698449458994820e-03
 4.039608466579716790e-03
 4.045518483700439628e-03
 4.051428500821161599e-03
 4.057338517941883570e-03
 4.063248535062605540e-03
 4.069158552183326644e-03
 4.075068569304048614e-03
 4.080978586424772320e-03
 4.086888603545493423e-03
 4.092798620666215394e-03
 4.098708637786938232e-03
 4.104618654907660202e-03
 4.110528672028381306e-03
 4.116438689149103276e-03
 4.122348706269825247e-03
 4.128258723390548085e-03
 4.134168740511270056e-03
 4.140078757631992026e-03
 4.145988774752713130e-03
 4.151898791873436835e-03
 4.157808808994158806e-03
 4.163718826114880776e-03
 4.169628843235602747e-03
 4.175538860356324718e-03
 4.181448877477046688e-03
 4.187358894597768659e-03
 4.193268911718490630e-03
 4.199178928839211733e-03
 4.066849110925896925e-03
 4.071829949965191479e-03
 4.076810789004486901e-03
 4.081791628043781456e-03
 4.086772467083075143e-03
 4.091753306122371432e-03
 4.096734145161665119e-03
 4.101714984200959674e-03
 4.106695823240255096e-03
 4.111676662279548783e-03
 4.116657501318843337e-03
 4.121638340358137892e-03
 4.126619179397433314e-03
 4.131600018436727868e-03
 4.136580857476022423e-03
 4.141561696515316977e-03
 4.146542535554611532e-03
 4.151523374593905219e-03
 4.156504213633199774e-03
 4.161485052672496063e-03
 4.166465891711790617e-03
 4.171446730751085172e-03
 4.176427569790379726e-03
 4.181408408829674281e-03
 4.186389247868967968e-03
 4.191370086908262522e-03
 4.196350925947557944e-03
 4.201331764986852499e-03
 4.206312604026146186e-03
 4.211293443065441608e-03
 4.216274282104736162e-03
 4.221255121144030717e-03
 4.226235960183325271e-03
 4.231216799222619826e-03
 4.236197638261914380e-03
 4.241178477301208935e-03
 4.246159316340503490e-03
 4.251140155379798044e-03
 4.256120994419092599e-03
 4.261101833458387153e-03
 4.266082672497681708e-03
 4.271063511536976262e-03
 4.276044350576271684e-03
 4.281025189615566238e-03
 4.286006028654859926e-03
 4.290986867694154480e-03
 4.295967706733449902e-03
 4.300948545772745324e-03
 4.305929384812039011e-03
 4.310910223851332698e-03
 4.315891062890627253e-03
 4.320871901929923542e-03
 4.325852740969218097e-03
 4.330833580008512651e-03
 4.335814419047808073e-03
 4.340795258087101760e-03
 4.345776097126395447e-03
 4.350756936165690869e-03
 4.355737775204985424e-03
 4.360718614244279978e-03
 4.283462577259401771e-03
 4.287546520840705352e-03
 4.291630464422010668e-03
 4.295714408003313382e-03
 4.299798351584617831e-03
 4.303882295165923147e-03
 4.307966238747225861e-03
 4.312050182328529442e-03
 4.316134125909833891e-03
 4.320218069491138339e-03
 4.324302013072441921e-03
 4.328385956653747237e-03
 4.332469900235050818e-03
 4.336553843816353532e-03
 4.340637787397658848e-03
 4.344721730978962429e-03
 4.348805674560266010e-03
 4.352889618141569592e-03
 4.356973561722873173e-03
 4.361057505304178489e-03
 4.365141448885482070e-03
 4.369225392466785651e-03
 4.373309336048089233e-03
 4.377393279629392814e-03
 4.381477223210696395e-03
 4.385561166792001711e-03
 4.389645110373307027e-03
 4.393729053954610608e-03
 4.397812997535912455e-03
 4.401896941117216903e-03
 4.405980884698521352e-03
 4.410064828279825801e-03
 4.414148771861129382e-03
 4.418232715442432963e-03
 4.422316659023737412e-03
 4.426400602605040993e-03
 4.430484546186344574e-03
 4.434568489767649890e-03
 4.438652433348951737e-03
 4.442736376930255318e-03
 4.446820320511559767e-03
 4.450904264092863348e-03
 4.454988207674168664e-03
 4.459072151255473113e-03
 4.463156094836776694e-03
 4.467240038418081143e-03
 4.471323981999385591e-03
 4.475407925580689172e-03
 4.479491869161991886e-03
 4.483575812743294600e-03
 4.487659756324599916e-03
 4.491743699905905232e-03
 4.495827643487207079e-03
 4.499911587068510660e-03
 4.503995530649817711e-03
 4.508079474231120425e-03
 4.512163417812424006e-03
 4.516247361393727587e-03
 4.520331304975031168e-03
 4.524415248556335617e-03
 4.500161611615804795e-03
 4.503382686409912634e-03
 4.506603761204021341e-03
 4.509824835998128313e-03
 4.513045910792237887e-03
 4.516266985586348329e-03
 4.519488060380456168e-03
 4.522709135174564007e-03
 4.525930209968672714e-03
 4.529151284762781421e-03
 4.532372359556888393e-03
 4.535593434350996232e-03
 4.538814509145105806e-03
 4.542035583939213646e-03
 4.545256658733322352e-03
 4.548477733527431927e-03
 4.551698808321539766e-03
 4.554919883115646738e-03
 4.558140957909755445e-03
 4.561362032703866753e-03
 4.564583107497974593e-03
 4.567804182292080697e-03
 4.571025257086189404e-03
 4.574246331880298111e-03
 4.577467406674405950e-03
 4.580688481468513790e-03
 4.583909556262625098e-03
 4.587130631056732938e-03
 4.590351705850839910e-03
 4.593572780644948617e-03
 4.596793855439057323e-03
 4.600014930233165163e-03
 4.603236005027273002e-03
 4.606457079821381709e-03
 4.609678154615490416e-03
 4.612899229409599122e-03
 4.616120304203707829e-03
 4.619341378997816536e-03
 4.622562453791924375e-03
 4.625783528586032214e-03
 4.629004603380140054e-03
 4.632225678174247893e-03
 4.635446752968357467e-03
 4.638667827762467041e-03
 4.641888902556575748e-03
 4.645109977350683587e-03
 4.648331052144792294e-03
 4.651552126938900134e-03
 4.654773201733007973e-03
 4.657994276527115812e-03
 4.661215351321225386e-03
 4.664436426115334960e-03
 4.667657500909441065e-03
 4.670878575703548904e-03
 4.674099650497659346e-03
 4.677320725291767185e-03
 4.680541800085874157e-03
 4.683762874879981997e-03
 4.686983949674091571e-03
 4.690205024468201145e-03
 4.716779501114575987e-03
 4.719173464281228164e-03
 4.721567427447879474e-03
 4.723961390614530784e-03
 4.726355353781181226e-03
 4.728749316947833403e-03
 4.731143280114485580e-03
 4.733537243281136890e-03
 4.735931206447788200e-03
 4.738325169614440377e-03
 4.740719132781089952e-03
 4.743113095947740394e-03
 4.745507059114392572e-03
 4.747901022281043881e-03
 4.750294985447695191e-03
 4.752688948614346501e-03
 4.755082911780998678e-03
 4.757476874947648253e-03
 4.759870838114299563e-03
 4.762264801280953475e-03
 4.764658764447605652e-03
 4.767052727614256094e-03
 4.769446690780907404e-03
 4.771840653947557846e-03
 4.774234617114209156e-03
 4.776628580280860466e-03
 4.779022543447511776e-03
 4.781416506614163085e-03
 4.783810469780814395e-03
 4.786204432947465705e-03
 4.788598396114117015e-03
 4.790992359280767457e-03
 4.793386322447419634e-03
 4.795780285614071811e-03
 4.798174248780723988e-03
 4.800568211947374431e-03
 4.802962175114025740e-03
 4.805356138280677050e-03
 4.807750101447328360e-03
 4.810144064613978802e-03
 4.812538027780630112e-03
 4.814931990947282289e-03
 4.817325954113933599e-03
 4.819719917280584909e-03
 4.822113880447237086e-03