<VTKFile type="UnstructuredGrid" byte_order="BigEndian">
<UnstructuredGrid><Piece NumberOfPoints="1281" NumberOfCells="1200">
<Points>
 <DataArray type="Float32" NumberOfComponents="3" format="ascii">
 -1.517187454737722874e-03 6.078124977648258209e-03 0.000000000000000000e+00
 -1.479214290156960487e-03 6.040603388100862503e-03 0.000000000000000000e+00
 -1.441241125576198101e-03 6.003081798553466797e-03 0.000000000000000000e+00
 -1.403267844580113888e-03 5.965560674667358398e-03 0.000000000000000000e+00
 -1.365294679999351501e-03 5.928039085119962692e-03 0.000000000000000000e+00
 -1.327321515418589115e-03 5.890517495572566986e-03 0.000000000000000000e+00
 -1.289348234422504902e-03 5.852995906025171280e-03 0.000000000000000000e+00
 -1.251375069841742516e-03 5.815474316477775574e-03 0.000000000000000000e+00
 -1.213401905260980129e-03 5.777952726930379868e-03 0.000000000000000000e+00
 -1.175428624264895916e-03 5.740431603044271469e-03 0.000000000000000000e+00
 -1.137455459684133530e-03 5.702910013496875763e-03 0.000000000000000000e+00
 -1.099482295103371143e-03 5.665388423949480057e-03 0.000000000000000000e+00
 -1.061509014107286930e-03 5.627866834402084351e-03 0.000000000000000000e+00
 -1.023535849526524544e-03 5.590345244854688644e-03 0.000000000000000000e+00
 -9.855626849457621574e-04 5.552823655307292938e-03 0.000000000000000000e+00
 -9.475894621573388577e-04 5.515302531421184540e-03 0.000000000000000000e+00
 -9.096162393689155579e-04 5.477780941873788834e-03 0.000000000000000000e+00
 -8.716430747881531715e-04 5.440259352326393127e-03 0.000000000000000000e+00
 -8.336698519997298717e-04 5.402737762778997421e-03 0.000000000000000000e+00
 -7.956966292113065720e-04 5.365216173231601715e-03 0.000000000000000000e+00
 -7.577234646305441856e-04 5.327694583684206009e-03 0.000000000000000000e+00
 -7.197502418421208858e-04 5.290173459798097610e-03 0.000000000000000000e+00
 -6.817770190536975861e-04 5.252651870250701904e-03 0.000000000000000000e+00
 -6.438038544729351997e-04 5.215130280703306198e-03 0.000000000000000000e+00
 -6.058306316845118999e-04 5.177608691155910492e-03 0.000000000000000000e+00
 -5.678574088960886002e-04 5.140087101608514786e-03 0.000000000000000000e+00
 -5.298842443153262138e-04 5.102565512061119080e-03 0.000000000000000000e+00
 -4.919110215269029140e-04 5.065044388175010681e-03 0.000000000000000000e+00
 -4.539378278423100710e-04 5.027522798627614975e-03 0.000000000000000000e+00
 -4.159646050538867712e-04 4.990001209080219269e-03 0.000000000000000000e+00
 -3.779914113692939281e-04 4.952479619532823563e-03 0.000000000000000000e+00
 -3.400182176847010851e-04 4.914958029985427856e-03 0.000000000000000000e+00
 -3.020449948962777853e-04 4.877436440438032150e-03 0.000000000000000000e+00
 -2.640718012116849422e-04 4.839915316551923752e-03 0.000000000000000000e+00
 -2.260986075270920992e-04 4.802393727004528046e-03 0.000000000000000000e+00
 -1.881253992905840278e-04 4.764872137457132339e-03 0.000000000000000000e+00
 -1.501521910540759563e-04 4.727350547909736633e-03 0.000000000000000000e+00
 -1.121789900935254991e-04 4.689828958362340927e-03 0.000000000000000000e+00
 -7.420578913297504187e-05 4.652307368814945221e-03 0.000000000000000000e+00
 -3.623258453444577754e-05 4.614786244928836823e-03 0.000000000000000000e+00
 1.740616539791517425e-06 4.577264655381441116e-03 0.000000000000000000e+00
 3.971382102463394403e-05 4.539743065834045410e-03 0.000000000000000000e+00
 7.768702198518440127e-05 4.502221476286649704e-03 0.000000000000000000e+00
 1.156602229457348585e-04 4.464699886739253998e-03 0.000000000000000000e+00
 1.536334311822429299e-04 4.427178297191858292e-03 0.000000000000000000e+00
 1.916066248668357730e-04 4.389657173305749893e-03 0.000000000000000000e+00
 2.295798331033438444e-04 4.352135583758354187e-03 0.000000000000000000e+00
 2.675530267879366875e-04 4.314613994210958481e-03 0.000000000000000000e+00
 3.055262495763599873e-04 4.277092404663562775e-03 0.000000000000000000e+00
 3.434994432609528303e-04 4.239570815116167068e-03 0.000000000000000000e+00
 3.814726369455456734e-04 4.202049225568771362e-03 0.000000000000000000e+00
 4.194458597339689732e-04 4.164528101682662964e-03 0.000000000000000000e+00
 4.574190534185618162e-04 4.127006512135267258e-03 0.000000000000000000e+00
 4.953922471031546593e-04 4.089484922587871552e-03 0.000000000000000000e+00
 5.333654698915779591e-04 4.051963333040475845e-03 0.000000000000000000e+00
 5.713386344723403454e-04 4.014441743493080139e-03 0.000000000000000000e+00
 6.093118572607636452e-04 3.976920153945684433e-03 0.000000000000000000e+00
 6.472850800491869450e-04 3.939399030059576035e-03 0.000000000000000000e+00
 6.852582446299493313e-04 3.901877440512180328e-03 0.000000000000000000e+00
 7.232314674183726311e-04 3.864355850964784622e-03 0.000000000000000000e+00
 7.612046902067959309e-04 3.826834261417388916e-03 0.000000000000000000e+00
 -1.377516193315386772e-03 6.409142632037401199e-03 0.000000000000000000e+00
 -1.340588903985917568e-03 6.369114853441715240e-03 0.000000000000000000e+00
 -1.303661614656448364e-03 6.329087540507316589e-03 0.000000000000000000e+00
 -1.266734325326979160e-03 6.289059761911630630e-03 0.000000000000000000e+00
 -1.229807152412831783e-03 6.249032448977231979e-03 0.000000000000000000e+00
 -1.192879863083362579e-03 6.209004670381546021e-03 0.000000000000000000e+00
 -1.155952573753893375e-03 6.168977357447147369e-03 0.000000000000000000e+00
 -1.119025284424424171e-03 6.128949578851461411e-03 0.000000000000000000e+00
 -1.082097995094954967e-03 6.088921800255775452e-03 0.000000000000000000e+00
 -1.045170705765485764e-03 6.048894487321376801e-03 0.000000000000000000e+00
 -1.008243416436016560e-03 6.008866708725690842e-03 0.000000000000000000e+00
 -9.713161853142082691e-04 5.968839395791292191e-03 0.000000000000000000e+00
 -9.343888959847390652e-04 5.928811617195606232e-03 0.000000000000000000e+00
 -8.974616066552698612e-04 5.888784304261207581e-03 0.000000000000000000e+00
 -8.605343173258006573e-04 5.848756525665521622e-03 0.000000000000000000e+00
 -8.236070279963314533e-04 5.808729212731122971e-03 0.000000000000000000e+00
 -7.866797968745231628e-04 5.768701434135437012e-03 0.000000000000000000e+00
 -7.497525075450539589e-04 5.728673655539751053e-03 0.000000000000000000e+00
 -7.128252182155847549e-04 5.688646342605352402e-03 0.000000000000000000e+00
 -6.758979288861155510e-04 5.648618564009666443e-03 0.000000000000000000e+00
 -6.389706395566463470e-04 5.608591251075267792e-03 0.000000000000000000e+00
 -6.020434084348380566e-04 5.568563472479581833e-03 0.000000000000000000e+00
 -5.651161191053688526e-04 5.528536159545183182e-03 0.000000000000000000e+00
 -5.281888297758996487e-04 5.488508380949497223e-03 0.000000000000000000e+00
 -4.912615404464304447e-04 5.448481068015098572e-03 0.000000000000000000e+00
 -4.543342802207916975e-04 5.408453289419412613e-03 0.000000000000000000e+00
 -4.174069908913224936e-04 5.368425510823726654e-03 0.000000000000000000e+00
 -3.804797306656837463e-04 5.328398197889328003e-03 0.000000000000000000e+00
 -3.435524413362145424e-04 5.288370419293642044e-03 0.000000000000000000e+00
 -3.066251811105757952e-04 5.248343106359243393e-03 0.000000000000000000e+00
 -2.696978917811065912e-04 5.208315327763557434e-03 0.000000000000000000e+00
 -2.327706170035526156e-04 5.168288014829158783e-03 0.000000000000000000e+00
 -1.958433422259986401e-04 5.128260236233472824e-03 0.000000000000000000e+00
 -1.589160528965294361e-04 5.088232923299074173e-03 0.000000000000000000e+00
 -1.219887781189754605e-04 5.048205144703388214e-03 0.000000000000000000e+00
 -8.506150334142148495e-05 5.008177831768989563e-03 0.000000000000000000e+00
 -4.813422856386750937e-05 4.968150053173303604e-03 0.000000000000000000e+00
 -1.120695014833472669e-05 4.928122274577617645e-03 0.000000000000000000e+00
 2.572032826719805598e-05 4.888094961643218994e-03 0.000000000000000000e+00
 6.264760304475203156e-05 4.848067183047533035e-03 0.000000000000000000e+00
 9.957488509826362133e-05 4.808039870113134384e-03 0.000000000000000000e+00
 1.365021598758175969e-04 4.768012091517448425e-03 0.000000000000000000e+00
 1.734294346533715725e-04 4.727984778583049774e-03 0.000000000000000000e+00
 2.103567094309255481e-04 4.687956999987363815e-03 0.000000000000000000e+00
 2.472839842084795237e-04 4.647929687052965164e-03 0.000000000000000000e+00
 2.842112735379487276e-04 4.607901908457279205e-03 0.000000000000000000e+00
 3.211385337635874748e-04 4.567874129861593246e-03 0.000000000000000000e+00
 3.580658230930566788e-04 4.527846816927194595e-03 0.000000000000000000e+00
 3.949931124225258827e-04 4.487819038331508636e-03 0.000000000000000000e+00
 4.319203726481646299e-04 4.447791725397109985e-03 0.000000000000000000e+00
 4.688476619776338339e-04 4.407763946801424026e-03 0.000000000000000000e+00
 5.057749222032725811e-04 4.367736633867025375e-03 0.000000000000000000e+00
 5.427022115327417850e-04 4.327708855271339417e-03 0.000000000000000000e+00
 5.796295008622109890e-04 4.287681542336940765e-03 0.000000000000000000e+00
 6.165567901916801929e-04 4.247653763741254807e-03 0.000000000000000000e+00
 6.534840213134884834e-04 4.207625985145568848e-03 0.000000000000000000e+00
 6.904113106429576874e-04 4.167598672211170197e-03 0.000000000000000000e+00
 7.273385999724268913e-04 4.127570893615484238e-03 0.000000000000000000e+00
 7.642658893018960953e-04 4.087543580681085587e-03 0.000000000000000000e+00
 8.011931786313652992e-04 4.047515802085399628e-03 0.000000000000000000e+00
 8.381204097531735897e-04 4.007488489151000977e-03 0.000000000000000000e+00
 -1.232832786627113819e-03 6.741109304130077362e-03 0.000000000000000000e+00
 -1.196976169012486935e-03 6.698534358292818069e-03 0.000000000000000000e+00
 -1.161119434982538223e-03 6.655958946794271469e-03 0.000000000000000000e+00
 -1.125262700952589512e-03 6.613384000957012177e-03 0.000000000000000000e+00
 -1.089406083337962627e-03 6.570808589458465576e-03 0.000000000000000000e+00
[...]
<CellData>
 <DataArray Name="pos.x" type="Float32" NumberOfComponents="1" format="ascii">
 -1.428626735407694925e-03
 -1.391176495285584291e-03
 -1.353726255163473875e-03
 -1.316276015041363025e-03
 -1.278825774919252391e-03
 -1.241375534797141324e-03
 -1.203925294675031125e-03
 -1.166475054552920491e-03
 -1.129024814430810075e-03
 -1.091574574308699658e-03
 -1.054124334186589025e-03
 -1.016674094064478392e-03
 -9.792238539423675416e-04
 -9.417736138202567999e-04
 -9.043233736981464918e-04
 -8.668731335760355332e-04
 -8.294228934539247915e-04
 -7.919726533318145918e-04
 -7.545224132097042838e-04
 -7.170721730875935420e-04
 -6.796219329654828003e-04
 -6.421716928433721669e-04
 -6.047214527212616420e-04
 -5.672712125991510087e-04
 -5.298209724770403754e-04
 -4.923707323549296336e-04
 -4.549204922328186750e-04
 -4.174702521107082585e-04
 -3.800200119885980047e-04
 -3.425697718664873171e-04
 -3.051195317443767380e-04
 -2.676692916222662131e-04
 -2.302190515001556340e-04
 -1.927688113780449465e-04
 -1.553185712559342047e-04
 -1.178683311338236798e-04
 -8.041809101171310068e-05
 -4.296785088960235893e-05
 -5.517610767491779814e-06
 3.193262935461863667e-05
 6.938286947672927000e-05
 1.068331095988399033e-04
 1.442833497209504824e-04
 1.817335898430610616e-04
 2.191838299651716949e-04
 2.566340700872823824e-04
 2.940843102093930158e-04
 3.315345503315037575e-04
 3.689847904536139572e-04
 4.064350305757248073e-04
 4.438852706978356575e-04
 4.813355108199460740e-04
 5.187857509420568157e-04
 5.562359910641673406e-04
 5.936862311862778655e-04
 6.311364713083883905e-04
 6.685867114304991322e-04
 7.060369515526100908e-04
 7.434871916747206157e-04
 7.809374317968309238e-04
 -1.286978521243685621e-03
 -1.250586540293558303e-03
 -1.214194559343430985e-03
 -1.177802578393303233e-03
 -1.141410597443174831e-03
 -1.105018616493046862e-03
 -1.068626635542919328e-03
 -1.032234654592791576e-03
 -9.958426736426640412e-04
 -9.594506926925365064e-04
 -9.230587117424089716e-04
 -8.866667307922811115e-04
 -8.502747498421530346e-04
 -8.138827688920252830e-04
 -7.774907879418977482e-04
 -7.410988069917696713e-04
 -7.047068260416419197e-04
 -6.683148450915144933e-04
 -6.319228641413868501e-04
 -5.955308831912589900e-04
 -5.591389022411312384e-04
 -5.227469212910034867e-04
 -4.863549403408758977e-04
 -4.499629593907482003e-04
 -4.135709784406204487e-04
 -3.771789974904925886e-04
 -3.407870165403643491e-04
 -3.043950355902368143e-04
 -2.680030546401096047e-04
 -2.316110736899817447e-04
 -1.952190927398538846e-04
 -1.588271117897262414e-04
 -1.224351308395984898e-04
 -8.604314988947073814e-05
 -4.965116893934287809e-05
 -1.325918798921512645e-05
 2.313279296091262519e-05
 5.952477391104032262e-05
 9.591675486116802004e-05
 1.323087358112956633e-04
 1.687007167614233607e-04
 2.050926977115512207e-04
 2.414846786616788640e-04
 2.778766596118063988e-04
 3.142686405619342588e-04
 3.506606215120620105e-04
 3.870526024621898705e-04
 4.234445834123178390e-04
 4.598365643624450485e-04
 4.962285453125731254e-04
 5.326205262627012023e-04
 5.690125072128287371e-04
 6.054044881629563803e-04
 6.417964691130841320e-04
 6.781884500632119920e-04
 7.145804310133394184e-04
 7.509724119634672785e-04
 7.873643929135953554e-04
 8.237563738637229986e-04
 8.601483548138505334e-04
 -1.140413751337334639e-03
 -1.105103558699506005e-03
 -1.069793366061677371e-03
 -1.034483173423848303e-03
 -9.991729807860188009e-04
 -9.638627881481897329e-04
 -9.285525955103608817e-04
 -8.932424028725320306e-04
 -8.579322102347031794e-04
 -8.226220175968743283e-04
 -7.873118249590455855e-04
 -7.520016323212167344e-04
 -7.166914396833874495e-04
 -6.813812470455584899e-04
 -6.460710544077296388e-04
 -6.107608617699007876e-04
 -5.754506691320718280e-04
 -5.401404764942428684e-04
 -5.048302838564140173e-04
 -4.695200912185850035e-04
 -4.342098985807560439e-04
 -3.988997059429270301e-04
 -3.635895133050981247e-04
 -3.282793206672692194e-04
 -2.929691280294406393e-04
 -2.576589353916116255e-04
 -2.223487427537821238e-04
 -1.870385501159532726e-04
 -1.517283574781249094e-04
 -1.164181648402958956e-04
 -8.110797220246650230e-05
 -4.579777956463759693e-05
 -1.048758692680847471e-05
 2.482260571102032224e-05
 6.013279834884917340e-05
 9.544299098667829561e-05
 1.307531836245072552e-04
 1.660633762623361064e-04
 2.013735689001651744e-04
 2.366837615379940255e-04
 2.719939541758227683e-04
 3.073041468136519447e-04
 3.426143394514807958e-04
 3.779245320893095386e-04
 4.132347247271387150e-04
 4.485449173649675662e-04
 4.838551100027965257e-04
 5.191653026406257022e-04
 5.544754952784541197e-04
 5.897856879162831877e-04
 6.250958805541124725e-04
 6.604060731919415405e-04
 6.957162658297703917e-04
 7.310264584675993512e-04
 7.663366511054283108e-04
 8.016468437432570536e-04
 8.369570363810862300e-04
 8.722672290189150811e-04
 9.075774216567438239e-04
 9.428876142945727835e-04
 -9.890988714045549548e-04
 -9.548917314011666577e-04
 -9.206845913977781438e-04
 -8.864774513943898468e-04
 -8.522703113910013329e-04
 -8.180631713876126022e-04
 -7.838560313842240883e-04
 -7.496488913808362249e-04
 -7.154417513774480363e-04
 -6.812346113740595224e-04
 -6.470274713706711169e-04
 -6.128203313672832536e-04
 -5.786131913638947397e-04
 -5.444060513605059005e-04
 -5.101989113571174950e-04
 -4.759917713537294690e-04
 -4.417846313503410094e-04
 -4.075774913469526581e-04
 -3.733703513435644695e-04
 -3.391632113401760098e-04
 -3.049560713367875501e-04
 -2.707489313333991446e-04
 -2.365417913300106307e-04
 -2.023346513266222795e-04
 -1.681275113232343077e-04
 -1.339203713198459022e-04
 -9.971323131645706307e-05
 -6.550609131306876602e-05
 -3.129895130968079423e-05
 2.908188693707665449e-06
 3.711532869709628776e-05
 7.132246870048453060e-05
 1.055296087038730445e-04
 1.397367487072613958e-04
 1.739438887106497470e-04
 2.081510287140382609e-04
 2.423581687174267748e-04
 2.765653087208150718e-04
 3.107724487242032605e-04
 3.449795887275915575e-04
 3.791867287309798546e-04
 4.133938687343684769e-04
 4.476010087377567739e-04
 4.818081487411450710e-04
 5.160152887445335849e-04
 5.502224287479218819e-04
 5.844295687513101790e-04
 6.186367087546988013e-04
 6.528438487580869899e-04
 6.870509887614752870e-04
 7.212581287648639093e-04
 7.554652687682525316e-04
 7.896724087716410455e-04
 8.238795487750292341e-04
 8.580866887784173143e-04
 8.922938287818057198e-04
 9.265009687851943421e-04
 9.607081087885826392e-04
 9.949152487919708278e-04
 1.029122388795359125e-03
 -8.332003383569985388e-04
 -8.001152728834962959e-04
 -7.670302074099941613e-04
 -7.339451419364918100e-04
 -7.008600764629893502e-04
 -6.677750109894866736e-04
 -6.346899455159845391e-04
 -6.016048800424826214e-04
 -5.685198145689805953e-04
 -5.354347490954783524e-04
 -5.023496836219762179e-04
 -4.692646181484741918e-04
 -4.361795526749717320e-04
 -4.030944872014692723e-04
 -3.700094217279668667e-04
 -3.369243562544650575e-04
 -3.038392907809628687e-04
 -2.707542253074607342e-04
 -2.376691598339586539e-04
 -2.045840943604561400e-04
 -1.714990288869538428e-04
 -1.384139634134514373e-04
 -1.053288979399490317e-04
 -7.224383246644684297e-05
 -3.915876699294465425e-05
 -6.073701519442357109e-06
 2.701136395406004845e-05
 6.009642942756218296e-05
 9.318149490106420905e-05
 1.262665603745664520e-04
 1.593516258480685865e-04
 1.924366913215707752e-04
 2.255217567950731266e-04
 2.586068222685752611e-04
 2.916918877420776124e-04
 3.247769532155799638e-04
 3.578620186890823151e-04
 3.909470841625844496e-04
 4.240321496360863673e-04
 4.571172151095886102e-04
 4.902022805830909616e-04
 5.232873460565932045e-04
 5.563724115300954474e-04
 5.894574770035977988e-04
 6.225425424771000417e-04
 6.556276079506023931e-04
 6.887126734241044192e-04
 7.217977388976068789e-04
 7.548828043711090134e-04
 7.879678698446110395e-04
 8.210529353181133909e-04
 8.541380007916157422e-04
 8.872230662651184189e-04
 9.203081317386205534e-04
 9.533931972121225795e-04
 9.864782626856248224e-04
 1.019563328159126848e-03
 1.052648393632629308e-03
 1.085733459106131334e-03
 1.118818524579633794e-03
 -6.728846201959334588e-04
 -6.409384309003002180e-04
 -6.089922416046675193e-04
 -5.770460523090343869e-04
 -5.450998630134008208e-04
 -5.131536737177672548e-04
 -4.812074844221344476e-04
 -4.492612951265014779e-04
 -4.173151058308682913e-04
 -3.853689165352349962e-04
 -3.534227272396021349e-04
 -3.214765379439694904e-04
 -2.895303486483359243e-04
 -2.575841593527028461e-04
 -2.256379700570696595e-04
 -1.936917807614360935e-04
 -1.617455914658030153e-04
 -1.297994021701705876e-04
 -9.785321287453750943e-05
 -6.590702357890367230e-05
 -3.396083428327043149e-05
 -2.014644987637299097e-06
 2.993154430799621277e-05
 6.187773360362912832e-05
 9.382392289926198966e-05
 1.257701121948951763e-04
 1.577163014905287423e-04
 1.896624907861618747e-04
 2.216086800817944650e-04
 2.535548693774275974e-04
 2.855010586730607298e-04
 3.174472479686939706e-04
 3.493934372643272114e-04
 3.813396265599601270e-04
 4.132858158555934762e-04
 4.452320051512267170e-04
 4.771781944468596326e-04
 5.091243837424926566e-04
 5.410705730381257890e-04
 5.730167623337591382e-04
 6.049629516293923790e-04
 6.369091409250252946e-04
 6.688553302206584270e-04
 7.008015195162916678e-04
 7.327477088119249086e-04
 7.646938981075582578e-04
 7.966400874031910649e-04
 8.285862766988241973e-04
 8.605324659944571129e-04
 8.924786552900902453e-04
 9.244248445857235945e-04
 9.563710338813568353e-04
 9.883172231769901846e-04
 1.020263412472623317e-03
 1.052209601768256449e-03
 1.084155791063889582e-03
 1.116101980359522280e-03
 1.148048169655155413e-03
 1.179994358950788545e-03
 1.211940548246421678e-03
 -5.083181959018474860e-04
 -4.775254861430422372e-04
 -4.467327763842374221e-04
 -4.159400666254324443e-04
 -3.851473568666269787e-04
 -3.543546471078216215e-04
 -3.235619373490166979e-04
 -2.927692275902118828e-04
 -2.619765178314067966e-04
 -2.311838080726011683e-04
 -2.003910983137964074e-04
 -1.695983885549920260e-04
 -1.388056787961866145e-04
 -1.080129690373818536e-04
 -7.722025927857693005e-05
 -4.642754951977103072e-05
 -1.563483976096572770e-05
 1.515786999783849112e-05
 4.595057975664346888e-05
 7.674328951544947663e-05
 1.075359992742546170e-04
 1.383287090330594864e-04
 1.691214187918648436e-04
 1.999141285506696045e-04
 2.307068383094744738e-04
 2.614995480682796684e-04
 2.922922578270850799e-04
 3.230849675858900576e-04
 3.538776773446946017e-04
 3.846703871034997963e-04
 4.154630968623049909e-04
 4.462558066211101855e-04
 4.770485163799154885e-04
 5.078412261387203579e-04
 5.386339358975254440e-04
 5.694266456563306386e-04
 6.002193554151355080e-04
 6.310120651739404857e-04
 6.618047749327456803e-04
 6.925974846915508749e-04
 7.233901944503560695e-04
 7.541829042091612641e-04
 7.849756139679661335e-04
 8.157683237267711112e-04
 8.465610334855761974e-04
 8.773537432443812836e-04
 9.081464530031862614e-04
 9.389391627619914560e-04
 9.697318725207964337e-04
 1.000524582279601520e-03
 1.031317292038406823e-03
 1.062110001797212126e-03
 1.092902711556017212e-03
 1.123695421314822081e-03
 1.154488131073627384e-03
 1.185280840832432471e-03
 1.216073550591237340e-03
 1.246866260350042209e-03
 1.277658970108847295e-03
 1.308451679867652165e-03
 -3.396675553198175135e-04
 -3.100407518969536952e-04
 -2.804139484740897684e-04
 -2.507871450512258417e-04
 -2.211603416283620775e-04
 -1.915335382054981508e-04
 -1.619067347826343866e-04
 -1.322799313597705683e-04
 -1.026531279369068041e-04
 -7.302632451404276895e-05
 -4.339952109117933008e-05
 -1.377271766831583699e-05
 1.585408575454857767e-05
 4.548088917741201654e-05
 7.510769260027556384e-05
 1.047344960231397617e-04
 1.343612994460037968e-04
 1.639881028688671273e-04
 1.936149062917309456e-04
 2.232417097145954687e-04
 2.528685131374590160e-04
 2.824953165603225633e-04
 3.121221199831866527e-04
 3.417489234060506337e-04
 3.713757268289142894e-04
 4.010025302517781619e-04
 4.306293336746422513e-04
 4.602561370975060155e-04
 4.898829405203694544e-04
 5.195097439432333269e-04
 5.491365473660974163e-04
 5.787633507889612889e-04
 6.083901542118252698e-04
 6.380169576346889256e-04
 6.676437610575526897e-04
 6.972705644804165622e-04
 7.268973679032803264e-04
 7.565241713261443074e-04
 7.861509747490082883e-04
 8.157777781718719440e-04
 8.454045815947358166e-04
 8.750313850176000144e-04
 9.046581884404636701e-04
 9.342849918633272174e-04
 9.639117952861909816e-04
 9.935385987090549625e-04
 1.023165402131918618e-03
 1.052792205554782708e-03
 1.082419008977646147e-03
 1.112045812400510019e-03
 1.141672615823373892e-03
 1.171299419246238415e-03
 1.200926222669102070e-03
 1.230553026091965726e-03
 1.260179829514829816e-03
 1.289806632937693471e-03
 1.319433436360557561e-03
 1.349060239783421000e-03
 1.378687043206284438e-03
 1.408313846629148311e-03
 -1.670991990406917320e-04
 -1.386485736845773867e-04
 -1.101979483284632583e-04
 -8.174732297234907569e-05
 -5.329669761623483885e-05
 -2.484607226012043937e-05
 3.604553095993797470e-06
 3.205517845210814273e-05
 6.050580380822232537e-05
 8.895642916433672484e-05
 1.174070545204505822e-04
 1.458576798765645480e-04
 1.743083052326793812e-04
 2.027589305887933470e-04
 2.312095559449075296e-04
 2.596601813010220375e-04
 2.881108066571362201e-04
 3.165614320132500775e-04
 3.450120573693644770e-04
 3.734626827254790933e-04
 4.019133080815930591e-04
 4.303639334377071333e-04
 4.588145587938218580e-04
 4.872651841499363659e-04
 5.157158095060502233e-04
 5.441664348621645143e-04
 5.726170602182791306e-04
 6.010676855743934217e-04
 6.295183109305072791e-04
 6.579689362866214617e-04
 6.864195616427359696e-04
 7.148701869988502607e-04
 7.433208123549644433e-04
 7.717714377110786259e-04
 8.002220630671929170e-04
 8.286726884233072080e-04
 8.571233137794216075e-04
 8.855739391355360070e-04
 9.140245644916504065e-04
 9.424751898477643722e-04
 9.709258152038784465e-04
 9.993764405599929544e-04
 1.027827065916107029e-03
 1.056277691272221320e-03
 1.084728316628335611e-03
 1.113178941984450119e-03
 1.141629567340564193e-03
 1.170080192696678484e-03
 1.198530818052792558e-03
 1.226981443408906632e-03
 1.255432068765021140e-03
 1.283882694121136082e-03
 1.312333319477249939e-03
 1.340783944833364230e-03
 1.369234570189478521e-03
 1.397685195545592379e-03
 1.426135820901706670e-03
 1.454586446257820961e-03
 1.483037071613935252e-03
 1.511487696970049543e-03
 9.220361721872123977e-06
 3.648667110311526159e-05
 6.375298048435823657e-05
 9.101928986560175365e-05
 1.182855992468452165e-04
 1.455519086280881915e-04
 1.728182180093313291e-04
 2.000845273905746294e-04
 2.273508367718177128e-04
 2.546171461530608504e-04
 2.818834555343036627e-04
 3.091497649155469088e-04
 3.364160742967903716e-04
 3.636823836780331840e-04
 3.909486930592764300e-04
 4.182150024405195676e-04
 4.454813118217629221e-04
 4.727476212030058429e-04
 5.000139305842488720e-04
 5.272802399654926602e-04
 5.545465493467355809e-04
 5.818128587279785017e-04
 6.090791681092220730e-04
 6.363454774904652106e-04
 6.636117868717083482e-04
 6.908780962529514858e-04
 7.181444056341947319e-04
 7.454107150154380863e-04
 7.726770243966810071e-04
 7.999433337779240363e-04
 8.272096431591672823e-04
 8.544759525404105284e-04
 8.817422619216537744e-04
 9.090085713028969120e-04
 9.362748806841398328e-04
 9.635411900653830788e-04
 9.908074994466266501e-04
 1.018073808827869679e-03
 1.045340118209112925e-03
 1.072606427590355738e-03
 1.099872736971598767e-03
 1.127139046352842230e-03
 1.154405355734085259e-03
 1.181671665115328505e-03
 1.208937974496571968e-03
 1.236204283877815431e-03
 1.263470593259058243e-03
 1.290736902640301272e-03
 1.318003212021544301e-03
 1.345269521402787331e-03
 1.372535830784030794e-03
 1.399802140165274473e-03
 1.427068449546517719e-03
 1.454334758927760315e-03
 1.481601068309003561e-03
 1.508867377690246373e-03
 1.536133687071489836e-03
 1.563399996452733299e-03
 1.590666305833976328e-03
 1.617932615215219357e-03
 1.891246052584666512e-04
 2.152005735878992094e-04
 2.412765419173313339e-04
 2.673525102467642174e-04
 2.934284785761972093e-04
 3.195044469056296590e-04
 3.455804152350623257e-04
 3.716563835644949923e-04
 3.977323518939271168e-04
 4.238083202233594582e-04
 4.498842885527920164e-04
 4.759602568822250083e-04
 5.020362252116578917e-04
 5.281121935410900163e-04
 5.541881618705224661e-04
 5.802641301999549158e-04
 6.063400985293880162e-04
 6.324160668588203575e-04
 6.584920351882529157e-04
 6.845680035176864497e-04
 7.106439718471185742e-04
 7.367199401765506988e-04
 7.627959085059835822e-04
 7.888718768354162489e-04
 8.149478451648486986e-04
 8.410238134942810400e-04
 8.670997818237139235e-04
 8.931757501531468069e-04
 9.192517184825790399e-04
 9.453276868120114897e-04
 9.714036551414441563e-04
 9.974796234708768229e-04
 1.023555591800309706e-03
 1.049631560129742156e-03
 1.075707528459174606e-03
 1.101783496788607273e-03
 1.127859465118040156e-03
 1.153935433447472389e-03
 1.180011401776904839e-03
 1.206087370106337072e-03
 1.232163338435769738e-03
 1.258239306765202839e-03
 1.284315275094635288e-03
 1.310391243424067955e-03
 1.336467211753500622e-03
 1.362543180082933505e-03
 1.388619148412365955e-03
 1.414695116741798405e-03
 1.440771085071230638e-03
 1.466847053400663087e-03
 1.492923021730095971e-03
 1.518998990059528854e-03
 1.545074958388961738e-03
 1.571150926718393971e-03
 1.597226895047826421e-03
 1.623302863377259087e-03
 1.649378831706691754e-03
 1.675454800036124637e-03
 1.701530768365557087e-03
 1.727606736694989103e-03
 3.724469994950334144e-04
 3.973286937975989766e-04
 4.222103881001646472e-04
 4.470920824027303179e-04
 4.719737767052959885e-04
 4.968554710078623097e-04
 5.217371653104280887e-04
 5.466188596129936510e-04
 5.715005539155592132e-04
 5.963822482181246670e-04
 6.212639425206903376e-04
 6.461456368232566588e-04
 6.710273311258226547e-04
 6.959090254283877832e-04
 7.207907197309532370e-04
 7.456724140335192329e-04
 7.705541083360854457e-04
 7.954358026386504658e-04
 8.203174969412161364e-04
 8.451991912437827829e-04
 8.700808855463484535e-04
 8.949625798489137989e-04
 9.198442741514795780e-04
 9.447259684540455739e-04
 9.696076627566110277e-04
 9.944893570591763730e-04
 1.019371051361742803e-03
 1.044252745664308582e-03
 1.069134439966873493e-03
 1.094016134269439272e-03
 1.118897828572005485e-03
 1.143779522874571264e-03
 1.168661217177137043e-03
 1.193542911479703039e-03
 1.218424605782268601e-03
 1.243306300084834597e-03
 1.268187994387400376e-03
 1.293069688689965722e-03
 1.317951382992531284e-03
 1.342833077295096846e-03
 1.367714771597662408e-03
 1.392596465900228621e-03
 1.417478160202794617e-03
 1.442359854505360396e-03
 1.467241548807925958e-03
 1.492123243110491954e-03
 1.517004937413057516e-03
 1.541886631715623079e-03
 1.566768326018188641e-03
 1.591650020320754203e-03
 1.616531714623320199e-03
 1.641413408925886629e-03
 1.666295103228452625e-03
 1.691176797531018187e-03
 1.716058491833583315e-03
 1.740940186136148878e-03
 1.765821880438714873e-03
 1.790703574741280869e-03
 1.815585269043846432e-03
 1.840466963346411994e-03
 5.590210021279629939e-04
 5.827065610713872681e-04
 6.063921200148119760e-04
 6.300776789582369008e-04
 6.537632379016610666e-04
 6.774487968450860998e-04
 7.011343557885109162e-04
 7.248199147319352989e-04
 7.485054736753601152e-04
 7.721910326187844979e-04
 7.958765915622085553e-04
 8.195621505056336969e-04
 8.432477094490585133e-04
 8.669332683924823538e-04
 8.906188273359070618e-04
 9.143043862793320950e-04
 9.379899452227569113e-04
 9.616755041661807519e-04
 9.853610631096051346e-04
 1.009046622053031035e-03
 1.032732180996455851e-03
 1.056417739939879800e-03
 1.080103298883304183e-03
 1.103788857826728566e-03
 1.127474416770153165e-03
 1.151159975713577765e-03
 1.174845534657003015e-03
 1.198531093600427831e-03
 1.222216652543851780e-03
 1.245902211487276597e-03
 1.269587770430701196e-03
 1.293273329374125579e-03
 1.316958888317550395e-03
 1.340644447260975211e-03
 1.364330006204399594e-03
 1.388015565147824410e-03
 1.411701124091249010e-03