<VTKFile type="UnstructuredGrid" byte_order="BigEndian">
<UnstructuredGrid><Piece NumberOfPoints="1281" NumberOfCells="1200">
<Points>
 <DataArray type="Float32" NumberOfComponents="3" format="ascii">
 2.037500031292438507e-03 1.262500043958425522e-02 0.000000000000000000e+00
 2.052357187494635582e-03 1.253243442624807358e-02 0.000000000000000000e+00
 2.067214343696832657e-03 1.243986934423446655e-02 0.000000000000000000e+00
 2.082071499899029732e-03 1.234730333089828491e-02 0.000000000000000000e+00
 2.096928888931870461e-03 1.225473824888467789e-02 0.000000000000000000e+00
 2.111786045134067535e-03 1.216217223554849625e-02 0.000000000000000000e+00
 2.126643201336264610e-03 1.206960715353488922e-02 0.000000000000000000e+00
 2.141500357538461685e-03 1.197704114019870758e-02 0.000000000000000000e+00
 2.156357513740658760e-03 1.188447605818510056e-02 0.000000000000000000e+00
 2.171214902773499489e-03 1.179191004484891891e-02 0.000000000000000000e+00
 2.186072058975696564e-03 1.169934496283531189e-02 0.000000000000000000e+00
 2.200929215177893639e-03 1.160677894949913025e-02 0.000000000000000000e+00
 2.215786371380090714e-03 1.151421386748552322e-02 0.000000000000000000e+00
 2.230643527582287788e-03 1.142164785414934158e-02 0.000000000000000000e+00
 2.245500916615128517e-03 1.132908277213573456e-02 0.000000000000000000e+00
 2.260358072817325592e-03 1.123651675879955292e-02 0.000000000000000000e+00
 2.275215229019522667e-03 1.114395167678594589e-02 0.000000000000000000e+00
 2.290072385221719742e-03 1.105138566344976425e-02 0.000000000000000000e+00
 2.304929541423916817e-03 1.095882058143615723e-02 0.000000000000000000e+00
 2.319786930456757545e-03 1.086625456809997559e-02 0.000000000000000000e+00
 2.334644086658954620e-03 1.077368948608636856e-02 0.000000000000000000e+00
 2.349501242861151695e-03 1.068112347275018692e-02 0.000000000000000000e+00
 2.364358399063348770e-03 1.058855839073657990e-02 0.000000000000000000e+00
 2.379215788096189499e-03 1.049599237740039825e-02 0.000000000000000000e+00
 2.394072944298386574e-03 1.040342729538679123e-02 0.000000000000000000e+00
 2.408930100500583649e-03 1.031086128205060959e-02 0.000000000000000000e+00
 2.423787256702780724e-03 1.021829620003700256e-02 0.000000000000000000e+00
 2.438644412904977798e-03 1.012573018670082092e-02 0.000000000000000000e+00
 2.453501801937818527e-03 1.003316510468721390e-02 0.000000000000000000e+00
 2.468358958140015602e-03 9.940599091351032257e-03 0.000000000000000000e+00
 2.483216114342212677e-03 9.848034009337425232e-03 0.000000000000000000e+00
 2.498073270544409752e-03 9.755467996001243591e-03 0.000000000000000000e+00
 2.512930426746606827e-03 9.662902913987636566e-03 0.000000000000000000e+00
 2.527787815779447556e-03 9.570336900651454926e-03 0.000000000000000000e+00
 2.542644971981644630e-03 9.477771818637847900e-03 0.000000000000000000e+00
 2.557502128183841705e-03 9.385205805301666260e-03 0.000000000000000000e+00
 2.572359284386038780e-03 9.292640723288059235e-03 0.000000000000000000e+00
 2.587216440588235855e-03 9.200074709951877594e-03 0.000000000000000000e+00
 2.602073829621076584e-03 9.107509627938270569e-03 0.000000000000000000e+00
 2.616930985823273659e-03 9.014943614602088928e-03 0.000000000000000000e+00
 2.631788142025470734e-03 8.922378532588481903e-03 0.000000000000000000e+00
 2.646645298227667809e-03 8.829813450574874878e-03 0.000000000000000000e+00
 2.661502454429864883e-03 8.737247437238693237e-03 0.000000000000000000e+00
 2.676359843462705612e-03 8.644682355225086212e-03 0.000000000000000000e+00
 2.691216999664902687e-03 8.552116341888904572e-03 0.000000000000000000e+00
 2.706074155867099762e-03 8.459551259875297546e-03 0.000000000000000000e+00
 2.720931312069296837e-03 8.366985246539115906e-03 0.000000000000000000e+00
 2.735788468271493912e-03 8.274420164525508881e-03 0.000000000000000000e+00
 2.750645857304334641e-03 8.181854151189327240e-03 0.000000000000000000e+00
 2.765503013506531715e-03 8.089289069175720215e-03 0.000000000000000000e+00
 2.780360169708728790e-03 7.996723055839538574e-03 0.000000000000000000e+00
 2.795217325910925865e-03 7.904157973825931549e-03 0.000000000000000000e+00
 2.810074482113122940e-03 7.811591960489749908e-03 0.000000000000000000e+00
 2.824931871145963669e-03 7.719026412814855576e-03 0.000000000000000000e+00
 2.839789027348160744e-03 7.626460865139961243e-03 0.000000000000000000e+00
 2.854646183550357819e-03 7.533895317465066910e-03 0.000000000000000000e+00
 2.869503339752554893e-03 7.441329769790172577e-03 0.000000000000000000e+00
 2.884360495954751968e-03 7.348764222115278244e-03 0.000000000000000000e+00
 2.899217884987592697e-03 7.256198674440383911e-03 0.000000000000000000e+00
 2.914075041189789772e-03 7.163633126765489578e-03 0.000000000000000000e+00
 2.928932197391986847e-03 7.071067579090595245e-03 0.000000000000000000e+00
 2.245573559775948524e-03 1.293269731104373932e-02 0.000000000000000000e+00
 2.259299624711275101e-03 1.283729448914527893e-02 0.000000000000000000e+00
 2.273025456815958023e-03 1.274189166724681854e-02 0.000000000000000000e+00
 2.286751288920640945e-03 1.264648884534835815e-02 0.000000000000000000e+00
 2.300477121025323868e-03 1.255108695477247238e-02 0.000000000000000000e+00
 2.314202953130006790e-03 1.245568413287401199e-02 0.000000000000000000e+00
 2.327929018065333366e-03 1.236028131097555161e-02 0.000000000000000000e+00
 2.341654850170016289e-03 1.226487848907709122e-02 0.000000000000000000e+00
 2.355380682274699211e-03 1.216947566717863083e-02 0.000000000000000000e+00
 2.369106514379382133e-03 1.207407284528017044e-02 0.000000000000000000e+00
 2.382832346484065056e-03 1.197867002338171005e-02 0.000000000000000000e+00
 2.396558411419391632e-03 1.188326813280582428e-02 0.000000000000000000e+00
 2.410284243524074554e-03 1.178786531090736389e-02 0.000000000000000000e+00
 2.424010075628757477e-03 1.169246248900890350e-02 0.000000000000000000e+00
 2.437735907733440399e-03 1.159705966711044312e-02 0.000000000000000000e+00
 2.451461739838123322e-03 1.150165684521198273e-02 0.000000000000000000e+00
 2.465187804773449898e-03 1.140625402331352234e-02 0.000000000000000000e+00
 2.478913636878132820e-03 1.131085120141506195e-02 0.000000000000000000e+00
 2.492639468982815742e-03 1.121544931083917618e-02 0.000000000000000000e+00
 2.506365301087498665e-03 1.112004648894071579e-02 0.000000000000000000e+00
 2.520091133192181587e-03 1.102464366704225540e-02 0.000000000000000000e+00
 2.533817198127508163e-03 1.092924084514379501e-02 0.000000000000000000e+00
 2.547543030232191086e-03 1.083383802324533463e-02 0.000000000000000000e+00
 2.561268862336874008e-03 1.073843520134687424e-02 0.000000000000000000e+00
 2.574994694441556931e-03 1.064303237944841385e-02 0.000000000000000000e+00
 2.588720526546239853e-03 1.054763048887252808e-02 0.000000000000000000e+00
 2.602446591481566429e-03 1.045222766697406769e-02 0.000000000000000000e+00
 2.616172423586249352e-03 1.035682484507560730e-02 0.000000000000000000e+00
 2.629898255690932274e-03 1.026142202317714691e-02 0.000000000000000000e+00
 2.643624087795615196e-03 1.016601920127868652e-02 0.000000000000000000e+00
 2.657349919900298119e-03 1.007061637938022614e-02 0.000000000000000000e+00
 2.671075984835624695e-03 9.975213557481765747e-03 0.000000000000000000e+00
 2.684801816940307617e-03 9.879811666905879974e-03 0.000000000000000000e+00
 2.698527649044990540e-03 9.784408845007419586e-03 0.000000000000000000e+00
 2.712253481149673462e-03 9.689006023108959198e-03 0.000000000000000000e+00
 2.725979313254356384e-03 9.593603201210498810e-03 0.000000000000000000e+00
 2.739705378189682961e-03 9.498200379312038422e-03 0.000000000000000000e+00
 2.753431210294365883e-03 9.402797557413578033e-03 0.000000000000000000e+00
 2.767157042399048805e-03 9.307394735515117645e-03 0.000000000000000000e+00
 2.780882874503731728e-03 9.211992844939231873e-03 0.000000000000000000e+00
 2.794608706608414650e-03 9.116590023040771484e-03 0.000000000000000000e+00
 2.808334771543741226e-03 9.021187201142311096e-03 0.000000000000000000e+00
 2.822060603648424149e-03 8.925784379243850708e-03 0.000000000000000000e+00
 2.835786435753107071e-03 8.830381557345390320e-03 0.000000000000000000e+00
 2.849512267857789993e-03 8.734978735446929932e-03 0.000000000000000000e+00
 2.863238099962472916e-03 8.639575913548469543e-03 0.000000000000000000e+00
 2.876964164897799492e-03 8.544174022972583771e-03 0.000000000000000000e+00
 2.890689997002482414e-03 8.448771201074123383e-03 0.000000000000000000e+00
 2.904415829107165337e-03 8.353368379175662994e-03 0.000000000000000000e+00
 2.918141661211848259e-03 8.257965557277202606e-03 0.000000000000000000e+00
 2.931867493316531181e-03 8.162562735378742218e-03 0.000000000000000000e+00
 2.945593558251857758e-03 8.067159913480281830e-03 0.000000000000000000e+00
 2.959319390356540680e-03 7.971757091581821442e-03 0.000000000000000000e+00
 2.973045222461223602e-03 7.876355201005935669e-03 0.000000000000000000e+00
 2.986771054565906525e-03 7.780951913446187973e-03 0.000000000000000000e+00
 3.000496886670589447e-03 7.685549557209014893e-03 0.000000000000000000e+00
 3.014222951605916023e-03 7.590146735310554504e-03 0.000000000000000000e+00
 3.027948783710598946e-03 7.494743913412094116e-03 0.000000000000000000e+00
 3.041674615815281868e-03 7.399341557174921036e-03 0.000000000000000000e+00
 3.055400447919964790e-03 7.303938735276460648e-03 0.000000000000000000e+00
 3.069126280024647713e-03 7.208535913378000259e-03 0.000000000000000000e+00
 2.455307869240641594e-03 1.323689054697751999e-02 0.000000000000000000e+00
 2.467919141054153442e-03 1.313866302371025085e-02 0.000000000000000000e+00
 2.480530645698308945e-03 1.304043550044298172e-02 0.000000000000000000e+00
 2.493142150342464447e-03 1.294220704585313797e-02 0.000000000000000000e+00
 2.505753422155976295e-03 1.284397952258586884e-02 0.000000000000000000e+00
 2.518364926800131798e-03 1.274575199931859970e-02 0.000000000000000000e+00
[...]
<CellData>
 <DataArray Name="pos.x" type="Float32" NumberOfComponents="1" format="ascii">
 2.148850672358498630e-03
 2.163142291413397596e-03
 2.177433911439409075e-03
 2.191725532454773251e-03
 2.206017154478213428e-03
 2.220308777528891796e-03
 2.234600401626534762e-03
 2.248892026791317160e-03
 2.263183653043895644e-03
 2.277475280405616420e-03
 2.291766908898212104e-03
 2.306058538544077541e-03
 2.320350169366218636e-03
 2.334641801388178187e-03
 2.348933434634174235e-03
 2.363225069129181594e-03
 2.377516704898658198e-03
 2.391808341968937584e-03
 2.406099980366962175e-03
 2.420391620120476272e-03
 2.434683261258053805e-03
 2.448974903808953489e-03
 2.463266547803352573e-03
 2.477558193272307377e-03
 2.491849840247682170e-03
 2.506141488762387258e-03
 2.520433138850176023e-03
 2.534724790545901229e-03
 2.549016443885386649e-03
 2.563308098905519878e-03
 2.577599755644388937e-03
 2.591891414141106204e-03
 2.606183074436117190e-03
 2.620474736570998879e-03
 2.634766400588731648e-03
 2.649058066533545308e-03
 2.663349734451160664e-03
 2.677641404388620382e-03
 2.691933076394635929e-03
 2.706224750519400229e-03
 2.720516426814758963e-03
 2.734808105334257406e-03
 2.749099786133257957e-03
 2.763391469268924091e-03
 2.777683154800391664e-03
 2.791974842788730749e-03
 2.806266533297217553e-03
 2.820558226391275004e-03
 2.834849922138510912e-03
 2.849141620609059716e-03
 2.863433321875499642e-03
 2.877725026012969371e-03
 2.892016733099390079e-03
 2.906308443215463704e-03
 2.920600156444821266e-03
 2.934891872874449605e-03
 2.949183592594263777e-03
 2.963475315697805274e-03
 2.977767042282180449e-03
 2.992058772448125993e-03
 2.357200782428704559e-03
 2.370369509237385541e-03
 2.383538237029888054e-03
 2.396706965824262764e-03
 2.409875695638956285e-03
 2.423044426492806849e-03
 2.436213158405180039e-03
 2.449381891395957522e-03
 2.462550625485440767e-03
 2.475719360694494595e-03
 2.488888097044528094e-03
 2.502056834557427403e-03
 2.515225573255733520e-03
 2.528394313162540385e-03
 2.541563054301480135e-03
 2.554731796696935609e-03
 2.567900540373797922e-03
 2.581069285357726235e-03
 2.594238031675024595e-03
 2.607406779352695707e-03
 2.620575528418510325e-03
 2.633744278900936563e-03
 2.646913030829370177e-03
 2.660081784233854843e-03
 2.673250539145338896e-03
 2.686419295595697011e-03
 2.699588053617595768e-03
 2.712756813244762526e-03
 2.725925574511784636e-03
 2.739094337454351866e-03
 2.752263102109074253e-03
 2.765431868513741880e-03
 2.778600636707269367e-03
 2.791769406729583108e-03
 2.804938178622038043e-03
 2.818106952427049897e-03
 2.831275728188446458e-03
 2.844444505951269388e-03
 2.857613285762148052e-03
 2.870782067669039317e-03
 2.883950851721372825e-03
 2.897119637970316849e-03
 2.910288426468497693e-03
 2.923457217270337537e-03
 2.936626010431955119e-03
 2.949794806011395154e-03
 2.962963604068618358e-03
 2.976132404665455481e-03
 2.989301207865923456e-03
 3.002470013736284818e-03
 3.015638822344835629e-03
 3.028807633762463196e-03
 3.041976448062377620e-03
 3.055145265320384582e-03
 3.068314085614987259e-03
 3.081482909027524232e-03
 3.094651735642176427e-03
 3.107820565546255513e-03
 3.120989398830251605e-03
 3.134158235588035794e-03
 2.567135984846987285e-03
 2.579199612352659800e-03
 2.591263240830155631e-03
 2.603326870296718797e-03
 2.615390500770049115e-03
 2.627454132268241486e-03
 2.639517764809795868e-03
 2.651581398413729602e-03
 2.663645033099419548e-03
 2.675708668886842348e-03
 2.687772305796401386e-03
 2.699835943848973626e-03
 2.711899583066064000e-03
 2.723963223469585537e-03
 2.736026865082137344e-03
 2.748090507926802088e-03
 2.760154152027275223e-03
 2.772217797407916171e-03
 2.784281444093603033e-03
 2.796345092110017524e-03
 2.808408741483381724e-03
 2.820472392240695302e-03
 2.832536044409608451e-03
 2.844599698018580609e-03
 2.856663353096858780e-03
 2.868727009674404242e-03
 2.880790667782028285e-03
 2.892854327451413032e-03
 2.904917988715081077e-03
 2.916981651606545978e-03
 2.929045316160227251e-03
 2.941108982411446034e-03
 2.953172650396626315e-03
 2.965236320153195188e-03
 2.977299991719745912e-03
 2.989363665135814571e-03
 3.001427340442351047e-03
 3.013491017681293582e-03
 3.025554696895957785e-03
 3.037618378130935159e-03
 3.049682061432178095e-03
 3.061745746846999874e-03
 3.073809434424209109e-03
 3.085873124214165257e-03
 3.097936816268694483e-03
 3.110000510641384996e-03
 3.122064207387377152e-03
 3.134127906563724270e-03
 3.146191608229279013e-03
 3.158255312444711600e-03
 3.170319019272827693e-03
 3.182382728778382786e-03
 3.194446441028422640e-03
 3.206510156092108512e-03
 3.218573874041092287e-03
 3.230637594949278390e-03
 3.242701318893395374e-03
 3.254765045952563111e-03
 3.266828776208916853e-03
 3.278892509747275905e-03
 2.778489604810438149e-03
 2.789467792651172465e-03
 2.800445981429891280e-03
 2.811424171162762217e-03
 2.822402361866302445e-03
 2.833380553557362635e-03
 2.844358746253322981e-03
 2.855336939971847739e-03
 2.866315134731046554e-03
 2.877293330549471426e-03
 2.888271527446169620e-03
 2.899249725440572207e-03
 2.910227924552572561e-03
 2.921206124802614833e-03
 2.932184326211630630e-03
 2.943162528800946642e-03
 2.954140732592625950e-03
 2.965118937609138427e-03
 2.976097143873515129e-03
 2.987075351409495313e-03
 2.998053560241249749e-03
 3.009031770393722459e-03
 3.020009981892361403e-03
 3.030988194763408611e-03
 3.041966409033676835e-03
 3.052944624730753384e-03
 3.063922841882915117e-03
 3.074901060519302353e-03
 3.085879280669621798e-03
 3.096857502364586297e-03
 3.107835725635624269e-03
 3.118813950515051010e-03
 3.129792177036101655e-03
 3.140770405232906886e-03
 3.151748635140557992e-03
 3.162726866795135053e-03
 3.173705100233746405e-03
 3.184683335494491781e-03
 3.195661572616699964e-03
 3.206639811640688530e-03
 3.217618052608058315e-03
 3.228596295561590203e-03
 3.239574540545304970e-03
 3.250552787604631989e-03
 3.261531036786216673e-03
 3.272509288138204537e-03
 3.283487541710228622e-03
 3.294465797553407758e-03
 3.305444055720439811e-03
 3.316422316265655885e-03
 3.327400579245157804e-03
 3.338378844716717066e-03
 3.349357112740101831e-03
 3.360335383376810651e-03
 3.371313656690514381e-03
 3.382291932746892688e-03
 3.393270211613739866e-03
 3.404248493361203796e-03
 3.415226778061760792e-03
 3.426205065790273712e-03
 2.991094963571115390e-03
 3.001009221474904617e-03
 3.010923480264376430e-03
 3.020837739954297229e-03
 3.030752000559728317e-03
 3.040666262096069269e-03
 3.050580524579087852e-03
 3.060494788024997227e-03
 3.070409052450162341e-03
 3.080323317871548790e-03
 3.090237584306365030e-03
 3.100151851772291797e-03
 3.110066120287449578e-03
 3.119980389870322720e-03
 3.129894660539749018e-03
 3.139808932315256689e-03
 3.149723205216656274e-03
 3.159637479264209778e-03
 3.169551754478863986e-03
 3.179466030881831096e-03
 3.189380308495057097e-03
 3.199294587340887827e-03
 3.209208867442288424e-03
 3.219123148822781305e-03
 3.229037431506477391e-03
 3.238951715518129017e-03
 3.248866000883059244e-03
 3.258780287627305837e-03
 3.268694575777478153e-03
 3.278608865360973113e-03
 3.288523156405954821e-03
 3.298437448941116470e-03
 3.308351742996154792e-03
 3.318266038601315124e-03
 3.328180335787882770e-03
 3.338094634587894169e-03
 3.348008935034168122e-03
 3.357923237160599823e-03
 3.367837541001796574e-03
 3.377751846593564367e-03
 3.387666153972587399e-03
 3.397580463176552105e-03
 3.407494774244271621e-03
 3.417409087215625071e-03
 3.427323402131683770e-03
 3.437237719034678691e-03
 3.447152037968123205e-03
 3.457066358976699887e-03
 3.466980682106456102e-03
 3.476895007404989628e-03
 3.486809334921011066e-03
 3.496723664704950996e-03
 3.506637996808707140e-03
 3.516552331285687297e-03
 3.526466668191157589e-03
 3.536381007581872963e-03
 3.546295349516468808e-03
 3.556209694055597562e-03
 3.566124041261528859e-03
 3.576038391198832576e-03
 3.204785378455461339e-03
 3.213659049994290178e-03
 3.222532722351452265e-03
 3.231406395540136270e-03
 3.240280069573767650e-03
 3.249153744466133989e-03
 3.258027420231226698e-03
 3.266901096883408854e-03
 3.275774774437365325e-03
 3.284648452907973099e-03
 3.293522132310647797e-03
 3.302395812661057441e-03
 3.311269493975170595e-03
 3.320143176269369552e-03
 3.329016859560480265e-03
 3.337890543865488710e-03
 3.346764229202036593e-03
 3.355637915588005876e-03
 3.364511603041830164e-03
 3.373385291582195467e-03
 3.382258981228374126e-03
 3.391132672000072602e-03
 3.400006363917405881e-03
 3.408880057000985512e-03
 3.417753751272040608e-03
 3.426627446752109063e-03
 3.435501143463456485e-03
 3.444374841428783467e-03
 3.453248540671343542e-03
 3.462122241215108420e-03
 3.470995943084404563e-03
 3.479869646304380258e-03
 3.488743350900779232e-03
 3.497617056899951938e-03
 3.506490764328969167e-03
 3.515364473215603844e-03
 3.524238183588312805e-03
 3.533111895476276701e-03
 3.541985608909566530e-03
 3.550859323918967130e-03
 3.559733040536085594e-03
 3.568606758793377732e-03
 3.577480478724179725e-03
 3.586354200362793562e-03
 3.595227923744457547e-03
 3.604101648905177601e-03
 3.612975375882395996e-03
 3.621849104714131799e-03
 3.630722835439792722e-03
 3.639596568099789150e-03
 3.648470302735642989e-03
 3.657344039390292550e-03
 3.666217778107634141e-03
 3.675091518933044227e-03
 3.683965261913136995e-03
 3.692839007096045383e-03
 3.701712754531173450e-03
 3.710586504269533341e-03
 3.719460256363678070e-03
 3.728334010867697182e-03
 3.419394162856370829e-03
 3.427252409564964398e-03
 3.435110657013067982e-03
 3.442968905212237876e-03
 3.450827154174137060e-03
 3.458685403910718211e-03
 3.466543654434138273e-03
 3.474401905756924550e-03
 3.482260157891710600e-03
 3.490118410851595319e-03
 3.497976664649669800e-03
 3.505834919299632719e-03
 3.513693174815305052e-03
 3.521551431210761477e-03
 3.529409688500555024e-03
 3.537267946699374031e-03
 3.545126205822344417e-03
 3.552984465884940785e-03
 3.560842726902889704e-03
 3.568700988892396959e-03
 3.576559251869936788e-03
 3.584417515852334271e-03
 3.592275780856955727e-03
 3.600134046901389950e-03
 3.607992314003757861e-03
 3.615850582182503908e-03
 3.623708851456620712e-03
 3.631567121845469519e-03
 3.639425393368840057e-03
 3.647283666047118796e-03
 3.655141939901037848e-03
 3.663000214951872297e-03
 3.670858491221531267e-03
 3.678716768732277331e-03
 3.686575047507094274e-03
 3.694433327569364434e-03
 3.702291608943225187e-03
 3.710149891653234579e-03
 3.718008175724782892e-03
 3.725866461183675437e-03
 3.733724748056551496e-03
 3.741583036370709544e-03
 3.749441326154037430e-03
 3.757299617435272583e-03
 3.765157910243859332e-03
 3.773016204610046050e-03
 3.780874500564817501e-03
 3.788732798140066575e-03
 3.796591097368532276e-03
 3.804449398283759817e-03
 3.812307700920284509e-03
 3.820166005313659942e-03
 3.828024311500189108e-03
 3.835882619517466501e-03
 3.843740929403883719e-03
 3.851599241199207130e-03
 3.859457554944012350e-03
 3.867315870680320886e-03
 3.875174188451153447e-03
 3.883032508300869514e-03
 3.634754626203618496e-03
 3.641624412069462743e-03
 3.648494198588178410e-03
 3.655363985769355915e-03
 3.662233773622955175e-03
 3.669103562159183301e-03
 3.675973351388313326e-03
 3.682843141320755326e-03
 3.689712931967493569e-03
 3.696582723339336685e-03
 3.703452515447449352e-03
 3.710322308303340162e-03
 3.717192101918636964e-03
 3.724061896305323662e-03
 3.730931691475418421e-03
 3.737801487441401276e-03
 3.744671284215933971e-03
 3.751541081812032573e-03
 3.758410880242814191e-03
 3.765280679521887299e-03
 3.772150479662939732e-03
 3.779020280680208364e-03
 3.785890082588021580e-03
 3.792759885401155752e-03
 3.799629689134577642e-03
 3.806499493803786570e-03
 3.813369299424507804e-03
 3.820239106012744603e-03
 3.827108913585073983e-03
 3.833978722158304115e-03
 3.840848531749590112e-03
 3.847718342376594929e-03
 3.854588154057338005e-03
 3.861457966810292845e-03
 3.868327780654262117e-03
 3.875197595608703346e-03
 3.882067411693293068e-03
 3.888937228928306730e-03
 3.895807047334572289e-03
 3.902676866933205667e-03
 3.909546687746090834e-03
 3.916416509795412303e-03
 3.923286333104147351e-03
 3.930156157695599388e-03
 3.937025983593855048e-03
 3.943895810823471945e-03
 3.950765639409567140e-03
 3.957635469378256027e-03
 3.964505300755809258e-03
 3.971375133569540056e-03
 3.978244967847367058e-03
 3.985114803617995603e-03
 3.991984640910616750e-03
 3.998854479755609842e-03
 4.005724320183844285e-03
 4.012594162227106284e-03
 4.019464005918122265e-03
 4.026333851290413157e-03
 4.033203698378385466e-03
 4.040073547217507346e-03
 3.850700073918968472e-03
 3.856610150249786036e-03
 3.862520227141990042e-03
 3.868430304603553277e-03
 3.874340382642696163e-03
 3.880250461267737566e-03
 3.886160540487176764e-03
 3.892070620309668293e-03
 3.897980700743981178e-03
 3.903890781799211011e-03
 3.909800863484497180e-03
 3.915710945809219336e-03
 3.921621028782885064e-03
 3.927531112415213153e-03
 3.933441196716236377e-03
 3.939351281695973629e-03
 3.945261367364848865e-03
 3.951171453733360629e-03
 3.957081540812323189e-03
 3.962991628612682650e-03
 3.968901717145623641e-03
 3.974811806422564112e-03
 3.980721896455480593e-03
 3.986631987255908997e-03
 3.992542078836377496e-03
 3.998452171209077727e-03
 4.004362264386963736e-03
 4.010272358382712884e-03
 4.016182453209862953e-03
 4.022092548881889273e-03
 4.028002645412613256e-03
 4.033912742816217131e-03
 4.039822841107276914e-03
 4.045732940300359078e-03
 4.051643040410764750e-03
 4.057553141453914755e-03
 4.063463243445563852e-03
 4.069373346401971604e-03
 4.075283450339648242e-03
 4.081193555275487370e-03
 4.087103661226858774e-03
 4.093013768211478318e-03
 4.098923876247394064e-03
 4.104833985353249955e-03
 4.110744095547958811e-03
 4.116654206851151632e-03
 4.122564319282546151e-03
 4.128474432862527972e-03
 4.134384547612260721e-03
 4.140294663552827360e-03
 4.146204780706365563e-03
 4.152114899095151780e-03
 4.158025018742525850e-03
 4.163935139671664544e-03
 4.169845261907167110e-03
 4.175755385473537383e-03
 4.181665510396486568e-03
 4.187575636701777043e-03
 4.193485764416534679e-03
 4.199395893568009380e-03
 4.067063807361955170e-03
 4.072044698035899406e-03
 4.077025589178277093e-03
 4.082006480795411299e-03
 4.086987372893851472e-03
 4.091968265480265023e-03
 4.096949158561395687e-03
 4.101930052144114706e-03
 4.106910946235413883e-03
 4.111891840842556503e-03
 4.116872735972661006e-03
 4.121853631633243080e-03
 4.126834527831846171e-03
 4.131815424576174185e-03
 4.136796321874042053e-03
 4.141777219733589963e-03
 4.146758118162849685e-03
 4.151739017170141821e-03
 4.156719916763936158e-03
 4.161700816952971366e-03
 4.166681717746032083e-03
 4.171662619152105046e-03
 4.176643521180356533e-03
 4.181624423840098539e-03
 4.186605327140944036e-03
 4.191586231092560635e-03
 4.196567135704985449e-03
 4.201548040988279872e-03
 4.206528946952795001e-03
 4.211509853609202852e-03
 4.216490760968152028e-03
 4.221471669040643276e-03
 4.226452577838026026e-03
 4.231433487371748584e-03
 4.236414397653452679e-03
 4.241395308695211988e-03
 4.246376220509134013e-03
 4.251357133107800702e-03
 4.256338046503977020e-03
 4.261318960710666452e-03
 4.266299875741203819e-03
 4.271280791609177209e-03
 4.276261708328496502e-03
 4.281242625913522608e-03
 4.286223544378707506e-03
 4.291204463738832776e-03
 4.296185384009268936e-03
 4.301166305205602475e-03
 4.306147227343556927e-03
 4.311128150439587012e-03
 4.316109074510298370e-03
 4.321089999572781497e-03
 4.326070925644323779e-03
 4.331051852743130273e-03
 4.336032780887110263e-03
 4.341013710095241625e-03
 4.345994640386573356e-03
 4.350975571780844875e-03
 4.355956504298041064e-03
 4.360937437958820745e-03
 4.283679123769553940e-03
 4.287763110875363569e-03
 4.291847098357796410e-03
 4.295931086221706219e-03
 4.300015074472368290e-03
 4.304099063114621634e-03
 4.308183052153621850e-03
 4.312267041594834184e-03
 4.316351031443413366e-03
 4.320435021704956483e-03
 4.324519012384941789e-03
 4.328603003489058312e-03
 4.332686995023015894e-03
 4.336770986992710859e-03
 4.340854979404105453e-03
 4.344938972263246053e-03
 4.349022965576420166e-03
 4.353106959349806876e-03
 4.357190953589823793e-03
 4.361274948303095825e-03
 4.365358943496254820e-03
 4.369442939176062732e-03
 4.373526935349441973e-03
 4.377610932023471083e-03
 4.381694929205347429e-03
 4.385778926902342105e-03
 4.389862925121893605e-03
 4.393946923871644254e-03
 4.398030923159396838e-03
 4.402114922992930723e-03
 4.406198923380427734e-03
 4.410282924330130409e-03
 4.414366925850342002e-03
 4.418450927949613832e-03
 4.422534930636697580e-03
 4.426618933920518396e-03
 4.430702937810174907e-03
 4.434786942314847269e-03
 4.438870947443987122e-03
 4.442954953207368766e-03
 4.447038959614809869e-03
 4.451122966676288560e-03
 4.455206974402122107e-03
 4.459290982802783902e-03
 4.463374991888954639e-03
 4.467459001671758231e-03
 4.471543012162045375e-03
 4.475627023371414430e-03
 4.479711035311507994e-03
 4.483795047994216729e-03
 4.487879061431709719e-03
 4.491963075636364218e-03
 4.496047090620985953e-03
 4.500131106398529840e-03
 4.504215122982255237e-03
 4.508299140385753703e-03
 4.512383158622914302e-03
 4.516467177707937479e-03
 4.520551197655335932e-03
 4.524635218479941545e-03
 4.500379316196290169e-03
 4.503600426067840695e-03
 4.506821536228062218e-03
 4.510042646680608933e-03
 4.513263757428939878e-03
 4.516484868476920017e-03
 4.519705979828293751e-03
 4.522927091486829768e-03
 4.526148203456522266e-03
 4.529369315741067943e-03
 4.532590428344866057e-03
 4.535811541271670549e-03
 4.539032654525867669e-03
 4.542253768111503658e-03
 4.545474882033082725e-03
 4.548695996294801168e-03
 4.551917110901216972e-03
 4.555138225856892459e-03
 4.558359341166359595e-03
 4.561580456834348103e-03
 4.564801572865670974e-03
 4.568022689265124718e-03
 4.571243806037721819e-03
 4.574464923188550219e-03
 4.577686040722516586e-03
 4.580907158645118257e-03
 4.584128276961520372e-03
 4.587349395677279250e-03
 4.590570514797768197e-03
 4.593791634328586032e-03
 4.597012754275633419e-03
 4.600233874644610657e-03
 4.603454995441495605e-03
 4.606676116672345916e-03
 4.609897238343395320e-03
 4.613118360460802952e-03
 4.616339483031037597e-03
 4.619560606060624415e-03
 4.622781729556345309e-03
 4.626002853524718503e-03
 4.629223977972847688e-03
 4.632445102907828752e-03
 4.635666228336734161e-03
 4.638887354266915675e-03
 4.642108480705906329e-03
 4.645329607661316355e-03
 4.648550735140940735e-03
 4.651771863152677662e-03
 4.654992991704761870e-03
 4.658214120805282375e-03
 4.661435250462712433e-03
 4.664656380685821072e-03
 4.667877511483191702e-03
 4.671098642863942899e-03
 4.674319774837212317e-03
 4.677540907412259044e-03
 4.680762040598716867e-03
 4.683983174406408656e-03
 4.687204308845146876e-03
 4.690425443925306907e-03
 4.716997673455843726e-03
 4.719391663108328527e-03
 4.721785652967418027e-03
 4.724179643035495736e-03
 4.726573633315075268e-03
 4.728967623808559215e-03
 4.731361614518411751e-03
 4.733755605447614867e-03
 4.736149596598348242e-03
 4.738543587973527947e-03
 4.740937579575761271e-03
 4.743331571407826373e-03
 4.745725563472494475e-03
 4.748119555772718943e-03
 4.750513548311292682e-03
 4.752907541091118751e-03
 4.755301534115307510e-03
 4.757695527386745539e-03
 4.760089520908646413e-03
 4.762483514684082327e-03
 4.764877508716285071e-03
 4.767271503008418780e-03
 4.769665497563835808e-03
 4.772059492385921468e-03
 4.774453487478081889e-03
 4.776847482843642537e-03
 4.779241478486421536e-03
 4.781635474409711394e-03
 4.784029470617339776e-03
 4.786423467112988633e-03
 4.788817463900373744e-03
 4.791211460983503187e-03
 4.793605458366155189e-03
 4.795999456052315278e-03
 4.798393454046118167e-03
 4.800787452351651732e-03
 4.803181450973055024e-03
 4.805575449914750719e-03
 4.807969449180970675e-03
 4.810363448776281553e-03
 4.812757448705063529e-03
 4.815151448971989080e-03
 4.817545449581663898e-03
 4.819939450539047557e-03
 4.822333451848880188e-03