<VTKFile type="UnstructuredGrid" byte_order="BigEndian">
<UnstructuredGrid><Piece NumberOfPoints="1281" NumberOfCells="1200">
<Points>
 <DataArray type="Float32" NumberOfComponents="3" format="ascii">
 6.323437672108411789e-03 1.785937510430812836e-02 0.000000000000000000e+00
 6.320932880043983459e-03 1.771569810807704926e-02 0.000000000000000000e+00
 6.318428553640842438e-03 1.757202297449111938e-02 0.000000000000000000e+00
 6.315923761576414108e-03 1.742834597826004028e-02 0.000000000000000000e+00
 6.313419435173273087e-03 1.728466898202896118e-02 0.000000000000000000e+00
 6.310914643108844757e-03 1.714099384844303131e-02 0.000000000000000000e+00
 6.308410316705703735e-03 1.699731685221195221e-02 0.000000000000000000e+00
 6.305905990302562714e-03 1.685363985598087311e-02 0.000000000000000000e+00
 6.303401198238134384e-03 1.670996472239494324e-02 0.000000000000000000e+00
 6.300896871834993362e-03 1.656628772616386414e-02 0.000000000000000000e+00
 6.298392079770565033e-03 1.642261259257793427e-02 0.000000000000000000e+00
 6.295887753367424011e-03 1.627893559634685516e-02 0.000000000000000000e+00
 6.293382961302995682e-03 1.613525860011577606e-02 0.000000000000000000e+00
 6.290878634899854660e-03 1.599158346652984619e-02 0.000000000000000000e+00
 6.288373842835426331e-03 1.584790647029876709e-02 0.000000000000000000e+00
 6.285869516432285309e-03 1.570422947406768799e-02 0.000000000000000000e+00
 6.283365190029144287e-03 1.556055340915918350e-02 0.000000000000000000e+00
 6.280860397964715958e-03 1.541687734425067902e-02 0.000000000000000000e+00
 6.278356071561574936e-03 1.527320127934217453e-02 0.000000000000000000e+00
 6.275851279497146606e-03 1.512952521443367004e-02 0.000000000000000000e+00
 6.273346953094005585e-03 1.498584821820259094e-02 0.000000000000000000e+00
 6.270842161029577255e-03 1.484217215329408646e-02 0.000000000000000000e+00
 6.268337834626436234e-03 1.469849608838558197e-02 0.000000000000000000e+00
 6.265833508223295212e-03 1.455481909215450287e-02 0.000000000000000000e+00
 6.263328716158866882e-03 1.441114302724599838e-02 0.000000000000000000e+00
 6.260824389755725861e-03 1.426746696233749390e-02 0.000000000000000000e+00
 6.258319597691297531e-03 1.412379089742898941e-02 0.000000000000000000e+00
 6.255815271288156509e-03 1.398011390119791031e-02 0.000000000000000000e+00
 6.253310479223728180e-03 1.383643783628940582e-02 0.000000000000000000e+00
 6.250806152820587158e-03 1.369276177138090134e-02 0.000000000000000000e+00
 6.248301360756158829e-03 1.354908477514982224e-02 0.000000000000000000e+00
 6.245797034353017807e-03 1.340540871024131775e-02 0.000000000000000000e+00
 6.243292707949876785e-03 1.326173264533281326e-02 0.000000000000000000e+00
 6.240787915885448456e-03 1.311805658042430878e-02 0.000000000000000000e+00
 6.238283589482307434e-03 1.297437958419322968e-02 0.000000000000000000e+00
 6.235778797417879105e-03 1.283070351928472519e-02 0.000000000000000000e+00
 6.233274471014738083e-03 1.268702745437622070e-02 0.000000000000000000e+00
 6.230769678950309753e-03 1.254335045814514160e-02 0.000000000000000000e+00
 6.228265352547168732e-03 1.239967439323663712e-02 0.000000000000000000e+00
 6.225761026144027710e-03 1.225599832832813263e-02 0.000000000000000000e+00
 6.223256234079599380e-03 1.211232226341962814e-02 0.000000000000000000e+00
 6.220751907676458359e-03 1.196864526718854904e-02 0.000000000000000000e+00
 6.218247115612030029e-03 1.182496920228004456e-02 0.000000000000000000e+00
 6.215742789208889008e-03 1.168129313737154007e-02 0.000000000000000000e+00
 6.213237997144460678e-03 1.153761614114046097e-02 0.000000000000000000e+00
 6.210733670741319656e-03 1.139394007623195648e-02 0.000000000000000000e+00
 6.208228878676891327e-03 1.125026401132345200e-02 0.000000000000000000e+00
 6.205724552273750305e-03 1.110658794641494751e-02 0.000000000000000000e+00
 6.203220225870609283e-03 1.096291095018386841e-02 0.000000000000000000e+00
 6.200715433806180954e-03 1.081923488527536392e-02 0.000000000000000000e+00
 6.198211107403039932e-03 1.067555882036685944e-02 0.000000000000000000e+00
 6.195706315338611603e-03 1.053188182413578033e-02 0.000000000000000000e+00
 6.193201988935470581e-03 1.038820575922727585e-02 0.000000000000000000e+00
 6.190697196871042252e-03 1.024452969431877136e-02 0.000000000000000000e+00
 6.188192870467901230e-03 1.010085362941026688e-02 0.000000000000000000e+00
 6.185688544064760208e-03 9.957176633179187775e-03 0.000000000000000000e+00
 6.183183752000331879e-03 9.813500568270683289e-03 0.000000000000000000e+00
 6.180679425597190857e-03 9.669824503362178802e-03 0.000000000000000000e+00
 6.178174633532762527e-03 9.526148438453674316e-03 0.000000000000000000e+00
 6.175670307129621506e-03 9.382471442222595215e-03 0.000000000000000000e+00
 6.173165515065193176e-03 9.238795377314090729e-03 0.000000000000000000e+00
 6.532882340252399445e-03 1.805469021201133728e-02 0.000000000000000000e+00
 6.529922597110271454e-03 1.790898106992244720e-02 0.000000000000000000e+00
 6.526962853968143463e-03 1.776327192783355713e-02 0.000000000000000000e+00
 6.524002645164728165e-03 1.761756278574466705e-02 0.000000000000000000e+00
 6.521042902022600174e-03 1.747185364365577698e-02 0.000000000000000000e+00
 6.518083158880472183e-03 1.732614450156688690e-02 0.000000000000000000e+00
 6.515123415738344193e-03 1.718043535947799683e-02 0.000000000000000000e+00
 6.512163672596216202e-03 1.703472621738910675e-02 0.000000000000000000e+00
 6.509203929454088211e-03 1.688901707530021667e-02 0.000000000000000000e+00
 6.506244186311960220e-03 1.674330793321132660e-02 0.000000000000000000e+00
 6.503284443169832230e-03 1.659759879112243652e-02 0.000000000000000000e+00
 6.500324700027704239e-03 1.645188964903354645e-02 0.000000000000000000e+00
 6.497364956885576248e-03 1.630618050694465637e-02 0.000000000000000000e+00
 6.494405213743448257e-03 1.616047322750091553e-02 0.000000000000000000e+00
 6.491445004940032959e-03 1.601476408541202545e-02 0.000000000000000000e+00
 6.488485261797904968e-03 1.586905494332313538e-02 0.000000000000000000e+00
 6.485525518655776978e-03 1.572334580123424530e-02 0.000000000000000000e+00
 6.482565775513648987e-03 1.557763665914535522e-02 0.000000000000000000e+00
 6.479606032371520996e-03 1.543192751705646515e-02 0.000000000000000000e+00
 6.476646289229393005e-03 1.528621837496757507e-02 0.000000000000000000e+00
 6.473686546087265015e-03 1.514050923287868500e-02 0.000000000000000000e+00
 6.470726802945137024e-03 1.499480009078979492e-02 0.000000000000000000e+00
 6.467767059803009033e-03 1.484909188002347946e-02 0.000000000000000000e+00
 6.464807316660881042e-03 1.470338273793458939e-02 0.000000000000000000e+00
 6.461847107857465744e-03 1.455767359584569931e-02 0.000000000000000000e+00
 6.458887364715337753e-03 1.441196445375680923e-02 0.000000000000000000e+00
 6.455927621573209763e-03 1.426625531166791916e-02 0.000000000000000000e+00
 6.452967878431081772e-03 1.412054616957902908e-02 0.000000000000000000e+00
 6.450008135288953781e-03 1.397483702749013901e-02 0.000000000000000000e+00
 6.447048392146825790e-03 1.382912881672382355e-02 0.000000000000000000e+00
 6.444088649004697800e-03 1.368341967463493347e-02 0.000000000000000000e+00
 6.441128905862569809e-03 1.353771053254604340e-02 0.000000000000000000e+00
 6.438169162720441818e-03 1.339200139045715332e-02 0.000000000000000000e+00
 6.435209419578313828e-03 1.324629224836826324e-02 0.000000000000000000e+00
 6.432249676436185837e-03 1.310058310627937317e-02 0.000000000000000000e+00
 6.429289467632770538e-03 1.295487396419048309e-02 0.000000000000000000e+00
 6.426329724490642548e-03 1.280916575342416763e-02 0.000000000000000000e+00
 6.423369981348514557e-03 1.266345661133527756e-02 0.000000000000000000e+00
 6.420410238206386566e-03 1.251774746924638748e-02 0.000000000000000000e+00
 6.417450495064258575e-03 1.237203832715749741e-02 0.000000000000000000e+00
 6.414490751922130585e-03 1.222632918506860733e-02 0.000000000000000000e+00
 6.411531008780002594e-03 1.208062004297971725e-02 0.000000000000000000e+00
 6.408571265637874603e-03 1.193491183221340179e-02 0.000000000000000000e+00
 6.405611522495746613e-03 1.178920269012451172e-02 0.000000000000000000e+00
 6.402651779353618622e-03 1.164349354803562164e-02 0.000000000000000000e+00
 6.399692036211490631e-03 1.149778440594673157e-02 0.000000000000000000e+00
 6.396731827408075333e-03 1.135207526385784149e-02 0.000000000000000000e+00
 6.393772084265947342e-03 1.120636612176895142e-02 0.000000000000000000e+00
 6.390812341123819351e-03 1.106065697968006134e-02 0.000000000000000000e+00
 6.387852597981691360e-03 1.091494876891374588e-02 0.000000000000000000e+00
 6.384892854839563370e-03 1.076923962682485580e-02 0.000000000000000000e+00
 6.381933111697435379e-03 1.062353048473596573e-02 0.000000000000000000e+00
 6.378973368555307388e-03 1.047782134264707565e-02 0.000000000000000000e+00
 6.376013625413179398e-03 1.033211220055818558e-02 0.000000000000000000e+00
 6.373053882271051407e-03 1.018640305846929550e-02 0.000000000000000000e+00
 6.370094139128923416e-03 1.004069391638040543e-02 0.000000000000000000e+00
 6.367133930325508118e-03 9.894985705614089966e-03 0.000000000000000000e+00
 6.364174187183380127e-03 9.749276563525199890e-03 0.000000000000000000e+00
 6.361214444041252136e-03 9.603567421436309814e-03 0.000000000000000000e+00
 6.358254700899124146e-03 9.457858279347419739e-03 0.000000000000000000e+00
 6.355294957756996155e-03 9.312149137258529663e-03 0.000000000000000000e+00
 6.740635726600885391e-03 1.824204623699188232e-02 0.000000000000000000e+00
 6.737272720783948898e-03 1.809437759220600128e-02 0.000000000000000000e+00
 6.733909249305725098e-03 1.794670894742012024e-02 0.000000000000000000e+00
 6.730545777827501297e-03 1.779904030263423920e-02 0.000000000000000000e+00
 6.727182306349277496e-03 1.765137165784835815e-02 0.000000000000000000e+00
 6.723818834871053696e-03 1.750370301306247711e-02 0.000000000000000000e+00
[...]
<CellData>
 <DataArray Name="pos.x" type="Float32" NumberOfComponents="1" format="ascii">
 6.426991690840238268e-03
 6.424259503777369519e-03
 6.421527316599174619e-03
 6.418795129304948402e-03
 6.416062941893902437e-03
 6.413330754365423499e-03
 6.410598566718730962e-03
 6.407866378953110988e-03
 6.405134191067848870e-03
 6.402402003062133626e-03
 6.399669814935247947e-03
 6.396937626686392125e-03
 6.394205438315139420e-03
 6.391473249820155828e-03
 6.388741061201091802e-03
 6.386008872456953346e-03
 6.383276683587095143e-03
 6.380544494590635086e-03
 6.377812305466861939e-03
 6.375080116214838950e-03
 6.372347926833810648e-03
 6.369615737323172482e-03
 6.366883547681720552e-03
 6.364151357908780053e-03
 6.361419168003670105e-03
 6.358686977965260535e-03
 6.355954787792924242e-03
 6.353222597485673299e-03
 6.350490407042662031e-03
 6.347758216463122820e-03
 6.345026025745959322e-03
 6.342293834890475046e-03
 6.339561643895637831e-03
 6.336829452760672256e-03
 6.334097261484513200e-03
 6.331365070066243862e-03
 6.328632878505153873e-03
 6.325900686799950864e-03
 6.323168494949912323e-03
 6.320436302954141397e-03
 6.317704110811567762e-03
 6.314971918521217371e-03
 6.312239726082106636e-03
 6.309507533493216407e-03
 6.306775340753616871e-03
 6.304043147862248980e-03
 6.301310954818112667e-03
 6.298578761620155821e-03
 6.295846568267400058e-03
 6.293114374758716940e-03
 6.290382181093153238e-03
 6.287649987269544952e-03
 6.284917793286942320e-03
 6.282185599144026085e-03
 6.279453404839983530e-03
 6.276721210373554377e-03
 6.273989015743617996e-03
 6.271256820949119674e-03
 6.268524625988842504e-03
 6.265792430861798559e-03
 6.635370810204983642e-03
 6.632209164042859179e-03
 6.629047517767715746e-03
 6.625885871378842107e-03
 6.622724224875795908e-03
 6.619562578257938770e-03
 6.616400931524464048e-03
 6.613239284674914641e-03
 6.610077637708775336e-03
 6.606915990625131067e-03
 6.603754343423526470e-03
 6.600592696103322297e-03
 6.597431048663799508e-03
 6.594269401104298906e-03
 6.591107753424285329e-03
 6.587946105622991162e-03
 6.584784457699830937e-03
 6.581622809653931219e-03
 6.578461161484770725e-03
 6.575299513191887150e-03
 6.572137864774206702e-03
 6.568976216231208962e-03
 6.565814567562291114e-03
 6.562652918766582327e-03
 6.559491269843546572e-03
 6.556329620792211536e-03
 6.553167971612218999e-03
 6.550006322302583638e-03
 6.546844672862676615e-03
 6.543683023291733784e-03
 6.540521373589028298e-03
 6.537359723753897491e-03
 6.534198073785450582e-03
 6.531036423683089960e-03
 6.527874773445814689e-03
 6.524713123073092209e-03
 6.521551472564094190e-03
 6.518389821918046077e-03
 6.515228171133989436e-03
 6.512066520211489719e-03
 6.508904869149413283e-03
 6.505743217947101802e-03
 6.502581566603830160e-03
 6.499419915118510686e-03
 6.496258263490678475e-03
 6.493096611719218099e-03
 6.489934959803566640e-03
 6.486773307742588722e-03
 6.483611655535626017e-03
 6.480450003181851930e-03
 6.477288350680239504e-03
 6.474126698030098319e-03
 6.470965045230455195e-03
 6.467803392280499150e-03
 6.464641739179238789e-03
 6.461480085925875270e-03
 6.458318432519458835e-03
 6.455156778959120385e-03
 6.451995125243924038e-03
 6.448833471372915696e-03
 6.842000742734195319e-03
 6.838462047277751171e-03
 6.834923351717319025e-03
 6.831384656052542394e-03
 6.827845960282986730e-03
 6.824307264408194067e-03
 6.820768568427356023e-03
 6.817229872340578416e-03
 6.813691176146862045e-03
 6.810152479845957979e-03
 6.806613783437286819e-03
 6.803075086920350699e-03
 6.799536390294797471e-03
 6.795997693559854315e-03
 6.792458996715295717e-03
 6.788920299760373145e-03
 6.785381602694590467e-03
 6.781842905517745587e-03
 6.778304208228746498e-03
 6.774765510827744988e-03
 6.771226813313719305e-03
 6.767688115686391025e-03
 6.764149417944989064e-03
 6.760610720089078006e-03
 6.757072022118411521e-03
 6.753533324031914080e-03
 6.749994625829423486e-03
 6.746455927510296158e-03
 6.742917229074040300e-03
 6.739378530519847532e-03
 6.735839831847453309e-03
 6.732301133056158536e-03
 6.728762434145367337e-03
 6.725223735114481231e-03
 6.721685035963083886e-03
 6.718146336690490952e-03
 6.714607637296149921e-03
 6.711068937779301850e-03
 6.707530238139701277e-03
 6.703991538376315173e-03
 6.700452838489031650e-03
 6.696914138477004161e-03
 6.693375438339504123e-03
 6.689836738076093518e-03
 6.686298037685934476e-03
 6.682759337168813624e-03
 6.679220636523730895e-03
 6.675681935750345415e-03
 6.672143234847762068e-03
 6.668604533815696359e-03
 6.665065832652966073e-03
 6.661527131359439372e-03
 6.657988429934214199e-03
 6.654449728376784015e-03
 6.650911026686320490e-03
 6.647372324862255502e-03
 6.643833622904000979e-03
 6.640294920810688693e-03
 6.636756218581867615e-03
 6.633217516216758855e-03
 7.046714729421943782e-03
 7.042853003895965976e-03
 7.038991278280899710e-03
 7.035129552576275744e-03
 7.031267826781830398e-03
 7.027406100897128256e-03
 7.023544374921674056e-03
 7.019682648855487747e-03
 7.015820922698150393e-03
 7.011959196449160658e-03
 7.008097470108321653e-03
 7.004235743675048774e-03
 7.000374017149258755e-03
 6.996512290530425109e-03
 6.992650563818204358e-03
 6.988788837012304203e-03
 6.984927110112346474e-03
 6.981065383118098717e-03
 6.977203656028985873e-03
 6.973341928844637577e-03
 6.969480201564914185e-03
 6.965618474189152164e-03
 6.961756746717253502e-03
 6.957895019148814010e-03
 6.954033291483221330e-03
 6.950171563720362704e-03
 6.946309835859660470e-03
 6.942448107900919471e-03
 6.938586379843659190e-03
 6.934724651687430332e-03
 6.930862923431966617e-03
 6.927001195076873397e-03
 6.923139466621762092e-03
 6.919277738066139175e-03
 6.915416009409649893e-03
 6.911554280652014090e-03
 6.907692551792703542e-03
 6.903830822831271558e-03
 6.899969093767598441e-03
 6.896107364600868872e-03
 6.892245635331040350e-03
 6.888383905957523937e-03
 6.884522176479873808e-03
 6.880660446897885266e-03
 6.876798717210882636e-03
 6.872936987418660354e-03
 6.869075257520711880e-03
 6.865213527516539349e-03
 6.861351797405886889e-03
 6.857490067188084029e-03
 6.853628336862956430e-03
 6.849766606430011430e-03
 6.845904875888721673e-03
 6.842043145238682102e-03
 6.838181414479515413e-03
 6.834319683610765375e-03
 6.830457952631965347e-03
 6.826596221542693792e-03
 6.822734490342459782e-03
 6.818872759030886015e-03
 7.249346007091817846e-03
 7.245216871775964421e-03
 7.241087736389864235e-03
 7.236958600932891922e-03
 7.232829465404985898e-03
 7.228700329806017795e-03
 7.224571194135625922e-03
 7.220442058393570887e-03
 7.216312922579812793e-03
 7.212183786694043724e-03
 7.208054650736087608e-03
 7.203925514705755359e-03
 7.199796378602729523e-03
 7.195667242426802800e-03
 7.191538106177943097e-03
 7.187408969855798267e-03
 7.183279833459924220e-03
 7.179150696990538663e-03
 7.175021560447096894e-03
 7.170892423829548605e-03
 7.166763287137542515e-03
 7.162634150371095972e-03
 7.158505013529692894e-03
 7.154375876613181494e-03
 7.150246739621524475e-03
 7.146117602554406117e-03
 7.141988465411312076e-03
 7.137859328192442711e-03
 7.133730190897307095e-03
 7.129601053525790738e-03
 7.125471916077666390e-03
 7.121342778552653026e-03
 7.117213640950428855e-03
 7.113084503270941834e-03
 7.108955365513826806e-03
 7.104826227678993564e-03
 7.100697089765906078e-03
 7.096567951774677106e-03
 7.092438813704928478e-03
 7.088309675556374832e-03
 7.084180537328839226e-03
 7.080051399022091810e-03
 7.075922260635752678e-03
 7.071793122169813157e-03
 7.067663983623797934e-03
 7.063534844997619404e-03
 7.059405706290825672e-03
 7.055276567503477453e-03
 7.051147428635153210e-03
 7.047018289685571049e-03
 7.042889150654546224e-03
 7.038760011541717043e-03
 7.034630872347119070e-03
 7.030501733070135609e-03
 7.026372593710752783e-03
 7.022243454268614106e-03
 7.018114314743560851e-03
 7.013985175135227859e-03
 7.009856035443381810e-03
 7.005726895667661012e-03
 7.449727808463276965e-03
 7.445388476785740062e-03
 7.441049145058736651e-03
 7.436709813282315305e-03
 7.432370481456278266e-03
 7.428031149580337569e-03
 7.423691817654889599e-03
 7.419352485679089546e-03
 7.415013153653507265e-03
 7.410673821577916376e-03
 7.406334489451947382e-03
 7.401995157275546508e-03
 7.397655825048829979e-03
 7.393316492771543659e-03
 7.388977160443571321e-03
 7.384637828064836637e-03
 7.380298495635233789e-03
 7.375959163154486090e-03
 7.371619830622817317e-03
 7.367280498039890067e-03
 7.362941165405762454e-03
 7.358601832720247128e-03
 7.354262499983074339e-03
 7.349923167194211994e-03
 7.345583834353657492e-03
 7.341244501461378739e-03
 7.336905168517060018e-03
 7.332565835520674438e-03
 7.328226502472119652e-03
 7.323887169371362700e-03
 7.319547836218014136e-03
 7.315208503012243096e-03
 7.310869169753858761e-03
 7.306529836442749240e-03
 7.302190503078777491e-03
 7.297851169661842899e-03
 7.293511836191847453e-03
 7.289172502668648905e-03
 7.284833169092150978e-03
 7.280493835462222701e-03
 7.276154501778694071e-03
 7.271815168041740295e-03
 7.267475834250811464e-03
 7.263136500406123554e-03
 7.258797166507389466e-03
 7.254457832554594456e-03
 7.250118498547623164e-03
 7.245779164486191096e-03
 7.241439830370377181e-03
 7.237100496199937692e-03
 7.232761161974898649e-03
 7.228421827694954740e-03
 7.224082493360237806e-03
 7.219743158970320235e-03
 7.215403824525288765e-03
 7.211064490024923085e-03
 7.206725155469217992e-03
 7.202385820858014757e-03
 7.198046486191122563e-03
 7.193707151468514520e-03
 7.647693362218908192e-03
 7.643202633312248112e-03
 7.638711904377968633e-03
 7.634221175416390677e-03
 7.629730446427323426e-03
 7.625239717410714838e-03
 7.620748988366562310e-03
 7.616258259294866710e-03
 7.611767530195523955e-03
 7.607276801068575678e-03
 7.602786071913864886e-03
 7.598295342731463571e-03
 7.593804613521304946e-03
 7.589313884283469674e-03
 7.584823155017777346e-03
 7.580332425724129949e-03
 7.575841696402693150e-03
 7.571350967053378477e-03
 7.566860237676099193e-03
 7.562369508270826678e-03
 7.557878778837474193e-03
 7.553388049376046076e-03
 7.548897319886708861e-03
 7.544406590369117337e-03
 7.539915860823395537e-03
 7.535425131249436775e-03
 7.530934401647445750e-03
 7.526443672017051230e-03
 7.521952942358365105e-03
 7.517462212671467171e-03
 7.512971482956133651e-03
 7.508480753212421789e-03
 7.503990023440281279e-03
 7.499499293639610639e-03
 7.495008563810539974e-03
 7.490517833952861984e-03
 7.486027104066666875e-03
 7.481536374151913880e-03
 7.477045644208493713e-03
 7.472554914236402036e-03
 7.468064184235622370e-03
 7.463573454206058437e-03
 7.459082724147770085e-03
 7.454591994060624609e-03
 7.450101263944657569e-03
 7.445610533799849884e-03
 7.441119803626104409e-03
 7.436629073423416808e-03
 7.432138343191641364e-03
 7.427647612930958487e-03
 7.423156882641245013e-03
 7.418666152322337011e-03
 7.414175421974359380e-03
 7.409684691597248803e-03
 7.405193961190898594e-03
 7.400703230755288804e-03
 7.396212500290541732e-03
 7.391721769796350330e-03
 7.387231039272836898e-03
 7.382740308720035262e-03
 7.843075893068885904e-03
 7.838494144792549148e-03
 7.833912396510144330e-03
 7.829330648221763389e-03
 7.824748899927012544e-03
 7.820167151626283841e-03
 7.815585403319683100e-03
 7.811003655006617044e-03
 7.806421906687714511e-03
 7.801840158362637230e-03
 7.797258410031352241e-03
 7.792676661693980107e-03
 7.788094913350508686e-03
 7.783513165000911088e-03
 7.778931416645262775e-03
 7.774349668283446653e-03
 7.769767919915671756e-03
 7.765186171541582465e-03
 7.760604423161319293e-03
 7.756022674775180613e-03
 7.751440926382670293e-03
 7.746859177984257577e-03
 7.742277429579412507e-03
 7.737695681168651161e-03
 7.733113932751778385e-03
 7.728532184328596420e-03
 7.723950435899449608e-03
 7.719368687464105497e-03
 7.714786939022533728e-03
 7.710205190574900835e-03
 7.705623442121192074e-03
 7.701041693661158510e-03
 7.696459945195138416e-03
 7.691878196722898471e-03
 7.687296448244533217e-03
 7.682714699760040053e-03
 7.678132951269279333e-03
 7.673551202772494785e-03
 7.668969454269460896e-03
 7.664387705760232310e-03
 7.659805957245023264e-03
 7.655224208723577888e-03
 7.650642460195854547e-03
 7.646060711662076154e-03
 7.641478963121985969e-03
 7.636897214575853743e-03
 7.632315466023560646e-03
 7.627733717465045964e-03
 7.623151968900382554e-03
 7.618570220329479344e-03
 7.613988471752436080e-03
 7.609406723169289191e-03
 7.604824974579831379e-03
 7.600243225984268207e-03
 7.595661477382463500e-03
 7.591079728774490117e-03
 7.586497980160246575e-03
 7.581916231540019105e-03
 7.577334482913451220e-03
 7.572752734280653077e-03
 8.035708621810527461e-03
 8.031097804241391427e-03
 8.026486986685696032e-03
 8.021876169142912183e-03
 8.017265351613416316e-03
 8.012654534097015877e-03
 8.008043716593245959e-03
 8.003432899102769227e-03
 7.998822081625448638e-03
 7.994211264160890409e-03
 7.989600446709727716e-03
 7.984989629271244116e-03
 7.980378811845852474e-03
 7.975767994433561464e-03
 7.971157177034228838e-03
 7.966546359647639491e-03
 7.961935542274325983e-03
 7.957324724913823408e-03
 7.952713907566306972e-03
 7.948103090231800963e-03
 7.943492272910203031e-03
 7.938881455601261641e-03
 7.934270638305635989e-03
 7.929659821022720656e-03
 7.925049003752550336e-03
 7.920438186495582997e-03
 7.915827369251301690e-03
 7.911216552020015197e-03
 7.906605734801475452e-03
 7.901994917595902765e-03
 7.897384100403049070e-03
 7.892773283223181516e-03
 7.888162466056041627e-03
 7.883551648901778591e-03
 7.878940831760355978e-03
 7.874330014631673175e-03
 7.869719197515671200e-03
 7.865108380412710876e-03
 7.860497563322427911e-03
 7.855886746244966287e-03
 7.851275929180055388e-03
 7.846665112128135833e-03
 7.842054295088838126e-03
 7.837443478062424210e-03
 7.832832661048543671e-03
 7.828221844047598965e-03
 7.823611027059119982e-03
 7.819000210083448463e-03
 7.814389393120520222e-03
 7.809778576170344801e-03
 7.805167759232768676e-03
 7.800556942307781440e-03
 7.795946125395540952e-03
 7.791335308495964812e-03
 7.786724491608953275e-03
 7.782113674734645117e-03
 7.777502857872958808e-03
 7.772892041023938582e-03
 7.768281224187413569e-03
 7.763670407363614488e-03
 8.225424765375724881e-03
 8.220848394769992087e-03
 8.216272024193086929e-03
 8.211695653644929607e-03
 8.207119283125655432e-03
 8.202542912634893171e-03
 8.197966542172811094e-03
 8.193390171739480324e-03
 8.188813801334569528e-03
 8.184237430958293813e-03
 8.179661060610162251e-03
 8.175084690290591177e-03
 8.170508319999499058e-03
 8.165931949736644768e-03
 8.161355579502083818e-03
 8.156779209295724267e-03
 8.152202839117377031e-03
 8.147626468967593752e-03
 8.143050098845418597e-03
 8.138473728751314737e-03
 8.133897358685511156e-03
 8.129320988647433660e-03
 8.124744618637325111e-03
 8.120168248654956525e-03
 8.115591878700622805e-03
 8.111015508773718533e-03
 8.106439138874852596e-03
 8.101862769003475087e-03
 8.097286399159671008e-03
 8.092710029343547912e-03
 8.088133659554812629e-03
 8.083557289793690676e-03
 8.078980920060103987e-03
 8.074404550353672660e-03
 8.069828180674686394e-03
 8.065251811023251005e-03
 8.060675441398879038e-03
 8.056099071801549674e-03
 8.051522702231693127e-03
 8.046946332688858367e-03
 8.042369963173055802e-03
 8.037793593684212576e-03
 8.033217224222490016e-03
 8.028640854787591485e-03
 8.024064485379765049e-03
 8.019488115998904890e-03
 8.014911746644703960e-03
 8.010335377317233385e-03
 8.005759008016579900e-03
 8.001182638742465950e-03
 7.996606269495212457e-03
 7.992029900274439519e-03
 7.987453531080351832e-03
 7.982877161912625003e-03
 7.978300792771489749e-03
 7.973724423656699742e-03
 7.969148054568343451e-03
 7.964571685506321996e-03
 7.959995316470628440e-03
 7.955418947461283599e-03
 8.412057536861427404e-03
 8.407580690088234388e-03
 8.403103843355092667e-03
 8.398626996661689992e-03
 8.394150150008050648e-03
 8.389673303394218004e-03
 8.385196456820150426e-03
 8.380719610285447194e-03
 8.376242763790005957e-03
 8.371765917334118151e-03
 8.367289070917193969e-03
 8.362812224539575151e-03
 8.358335378200748220e-03
 8.353858531900990730e-03
 8.349381685639858594e-03
 8.344904839417298034e-03
 8.340427993233711507e-03
 8.335951147088047769e-03
 8.331474300980988568e-03
 8.326997454912284102e-03
 8.322520608881648144e-03
 8.318043762889006099e-03
 8.313566916934413478e-03
 8.309090071017611809e-03
 8.304613225138564661e-03
 8.300136379297143666e-03
 8.295659533493265556e-03
 8.291182687726909514e-03
 8.286705841997928090e-03
 8.282228996306189445e-03
 8.277752150651532248e-03
 8.273275305033855886e-03
 8.268798459453267913e-03
 8.264321613909619141e-03
 8.259844768402522727e-03
 8.255367922932254493e-03
 8.250891077498578516e-03
 8.246414232101246730e-03
 8.241937386740347607e-03
 8.237460541415744103e-03
 8.232983696127238460e-03
 8.228506850875028436e-03
 8.224030005658678616e-03
 8.219553160478216755e-03
 8.215076315333767754e-03
 8.210599470224773030e-03
 8.206122625151543101e-03
 8.201645780113866330e-03
 8.197168935111553631e-03
 8.192692090144594597e-03
 8.188215245213010043e-03
 8.183738400316473843e-03
 8.179261555455088345e-03
 8.174784710628664464e-03
 8.170307865837099850e-03
 8.165831021080455221e-03
 8.161354176358354140e-03
 8.156877331671046408e-03
 8.152400487018124364e-03
 8.147923642399704236e-03
 8.595440145532769194e-03
 8.591129454985010905e-03
 8.586818764483186359e-03
 8.582508074027175859e-03
 8.578197383616771240e-03
 8.573886693251635965e-03
 8.569576002931931363e-03
 8.565265312657084976e-03
 8.560954622427138436e-03
 8.556643932242074396e-03
 8.552333242101573668e-03
 8.548022552005431554e-03
 8.543711861953543971e-03
 8.539401171945390501e-03
 8.535090481981533195e-03
 8.530779792061255612e-03
 8.526469102184556018e-03
 8.522158412351172468e-03
 8.517847722561255885e-03
 8.513537032814270239e-03
 8.509226343110179100e-03
 8.504915653448942570e-03
 8.500604963830328195e-03
 8.496294274254054951e-03
 8.491983584720081205e-03
 8.487672895228228279e-03
 8.483362205778324436e-03
 8.479051516370333247e-03
 8.474740827004154098e-03
 8.470430137679207591e-03
 8.466119448395705363e-03
 8.461808759153468737e-03
 8.457498069952140360e-03
 8.453187380791791355e-03
 8.448876691672452949e-03
 8.444566002593545742e-03
 8.440255313554936162e-03
 8.435944624556874008e-03
 8.431633935598814578e-03
 8.427323246680985119e-03
 8.423012557802915523e-03
 8.418701868964541604e-03
 8.414391180165809586e-03
 8.410080491406624059e-03
 8.405769802686386544e-03
 8.401459114005761439e-03
 8.397148425363744340e-03
 8.392837736760817499e-03
 8.388527048196805710e-03
 8.384216359671124372e-03
 8.379905671183976446e-03
 8.375594982735060090e-03
 8.371284294324623371e-03
 8.366973605951923826e-03
 8.362662917617268502e-03
 8.358352229320414536e-03
 8.354041541061268256e-03
 8.349730852839408121e-03
 8.345420164655189751e-03
 8.341109476508023340e-03
 8.775405796788350588e-03
 8.771329445771797531e-03
 8.767253094801396793e-03
 8.763176743876756325e-03
 8.759100392997671430e-03
 8.755024042164384970e-03
 8.750947691376095502e-03
 8.746871340632780475e-03
 8.742794989934098149e-03
 8.738718639280109238e-03
 8.734642288670307203e-03
 8.730565938104738882e-03
 8.726489587582838756e-03
 8.722413237104863562e-03
 8.718336886670194005e-03
 8.714260536278816208e-03
 8.710184185930336387e-03
 8.706107835624719848e-03
 8.702031485361985674e-03
 8.697955135141389668e-03
 8.693878784962928361e-03
 8.689802434826685018e-03
 8.685726084732083713e-03
 8.681649734679382918e-03
 8.677573384667729151e-03
 8.673497034697367006e-03
 8.669420684768128216e-03
 8.665344334879605120e-03
 8.661267985031700575e-03
 8.657191635224173454e-03
 8.653115285457006409e-03
 8.649038935729861169e-03
 8.644962586042448036e-03
 8.640886236394921399e-03
 8.636809886786608187e-03
 8.632733537217785955e-03
 8.628657187687913468e-03
 8.624580838197030627e-03
 8.620504488744998653e-03
 8.616428139331265904e-03
 8.612351789956243509e-03
 8.608275440619192476e-03
 8.604199091320175255e-03
 8.600122742059072151e-03
 8.596046392835721833e-03