<VTKFile type="UnstructuredGrid" byte_order="BigEndian">
<UnstructuredGrid><Piece NumberOfPoints="64" NumberOfCells="45">
<Points>
 <DataArray type="Float32" NumberOfComponents="3" format="ascii">
 2.999999932944774628e-02 0.000000000000000000e+00 0.000000000000000000e+00
 3.006666712462902069e-02 0.000000000000000000e+00 0.000000000000000000e+00
 3.013333305716514587e-02 0.000000000000000000e+00 0.000000000000000000e+00
 3.020000085234642029e-02 0.000000000000000000e+00 0.000000000000000000e+00
 2.999999932944774628e-02 2.724006481003016233e-04 0.000000000000000000e+00
 3.006666712462902069e-02 2.724006481003016233e-04 0.000000000000000000e+00
 3.013333305716514587e-02 2.724006481003016233e-04 0.000000000000000000e+00
 3.020000085234642029e-02 2.724006481003016233e-04 0.000000000000000000e+00
 2.999999932944774628e-02 6.160786142572760582e-04 0.000000000000000000e+00
 3.006666712462902069e-02 6.160786142572760582e-04 0.000000000000000000e+00
 3.013333305716514587e-02 6.160786142572760582e-04 0.000000000000000000e+00
 3.020000085234642029e-02 6.160786142572760582e-04 0.000000000000000000e+00
 2.999999932944774628e-02 1.047916943207383156e-03 0.000000000000000000e+00
 3.006666712462902069e-02 1.047916943207383156e-03 0.000000000000000000e+00
 3.013333305716514587e-02 1.047916943207383156e-03 0.000000000000000000e+00
 3.020000085234642029e-02 1.047916943207383156e-03 0.000000000000000000e+00
 2.999999932944774628e-02 1.587754231877624989e-03 0.000000000000000000e+00
 3.006666712462902069e-02 1.587754231877624989e-03 0.000000000000000000e+00
 3.013333305716514587e-02 1.587754231877624989e-03 0.000000000000000000e+00
 3.020000085234642029e-02 1.587754231877624989e-03 0.000000000000000000e+00
 2.999999932944774628e-02 2.258288674056529999e-03 0.000000000000000000e+00
 3.006666712462902069e-02 2.258288674056529999e-03 0.000000000000000000e+00
 3.013333305716514587e-02 2.258288674056529999e-03 0.000000000000000000e+00
 3.020000085234642029e-02 2.258288674056529999e-03 0.000000000000000000e+00
 2.999999932944774628e-02 3.084564348682761192e-03 0.000000000000000000e+00
 3.006666712462902069e-02 3.084564348682761192e-03 0.000000000000000000e+00
 3.013333305716514587e-02 3.084564348682761192e-03 0.000000000000000000e+00
 3.020000085234642029e-02 3.084564348682761192e-03 0.000000000000000000e+00
 2.999999932944774628e-02 4.092831630259752274e-03 0.000000000000000000e+00
 3.006666712462902069e-02 4.092831630259752274e-03 0.000000000000000000e+00
 3.013333305716514587e-02 4.092831630259752274e-03 0.000000000000000000e+00
 3.020000085234642029e-02 4.092831630259752274e-03 0.000000000000000000e+00
 2.999999932944774628e-02 5.308576859533786774e-03 0.000000000000000000e+00
 3.006666712462902069e-02 5.308576859533786774e-03 0.000000000000000000e+00
 3.013333305716514587e-02 5.308576859533786774e-03 0.000000000000000000e+00
 3.020000085234642029e-02 5.308576859533786774e-03 0.000000000000000000e+00
 2.999999932944774628e-02 6.753570865839719772e-03 0.000000000000000000e+00
 3.006666712462902069e-02 6.753570865839719772e-03 0.000000000000000000e+00
 3.013333305716514587e-02 6.753570865839719772e-03 0.000000000000000000e+00
 3.020000085234642029e-02 6.753570865839719772e-03 0.000000000000000000e+00
 2.999999932944774628e-02 8.441984653472900391e-03 0.000000000000000000e+00
 3.006666712462902069e-02 8.441984653472900391e-03 0.000000000000000000e+00
 3.013333305716514587e-02 8.441984653472900391e-03 0.000000000000000000e+00
 3.020000085234642029e-02 8.441984653472900391e-03 0.000000000000000000e+00
 2.999999932944774628e-02 1.037593558430671692e-02 0.000000000000000000e+00
 3.006666712462902069e-02 1.037593558430671692e-02 0.000000000000000000e+00
 3.013333305716514587e-02 1.037593558430671692e-02 0.000000000000000000e+00
 3.020000085234642029e-02 1.037593558430671692e-02 0.000000000000000000e+00
 2.999999932944774628e-02 1.254125591367483139e-02 0.000000000000000000e+00
 3.006666712462902069e-02 1.254125591367483139e-02 0.000000000000000000e+00
 3.013333305716514587e-02 1.254125591367483139e-02 0.000000000000000000e+00
 3.020000085234642029e-02 1.254125591367483139e-02 0.000000000000000000e+00
 2.999999932944774628e-02 1.490467600524425507e-02 0.000000000000000000e+00
 3.006666712462902069e-02 1.490467600524425507e-02 0.000000000000000000e+00
 3.013333305716514587e-02 1.490467600524425507e-02 0.000000000000000000e+00
 3.020000085234642029e-02 1.490467600524425507e-02 0.000000000000000000e+00
 2.999999932944774628e-02 1.741369627416133881e-02 0.000000000000000000e+00
 3.006666712462902069e-02 1.741369627416133881e-02 0.000000000000000000e+00
 3.013333305716514587e-02 1.741369627416133881e-02 0.000000000000000000e+00
 3.020000085234642029e-02 1.741369627416133881e-02 0.000000000000000000e+00
 2.999999932944774628e-02 1.999999955296516418e-02 0.000000000000000000e+00
 3.006666712462902069e-02 1.999999955296516418e-02 0.000000000000000000e+00
 3.013333305716514587e-02 1.999999955296516418e-02 0.000000000000000000e+00
 3.020000085234642029e-02 1.999999955296516418e-02 0.000000000000000000e+00
 </DataArray>
</Points>
<Cells>
 <DataArray type="Int32" Name="connectivity" format="ascii">
 0 1 5 4
 1 2 6 5
 2 3 7 6
 4 5 9 8
 5 6 10 9
 6 7 11 10
 8 9 13 12
 9 10 14 13
 10 11 15 14
 12 13 17 16
 13 14 18 17
 14 15 19 18
 16 17 21 20
 17 18 22 21
 18 19 23 22
 20 21 25 24
 21 22 26 25
 22 23 27 26
 24 25 29 28
 25 26 30 29
 26 27 31 30
 28 29 33 32
 29 30 34 33
 30 31 35 34
 32 33 37 36
 33 34 38 37
 34 35 39 38
 36 37 41 40
 37 38 42 41
 38 39 43 42
 40 41 45 44
 41 42 46 45
 42 43 47 46
 44 45 49 48
 45 46 50 49
 46 47 51 50
 48 49 53 52
 49 50 54 53
 50 51 55 54
 52 53 57 56
 53 54 58 57
 54 55 59 58
 56 57 61 60
 57 58 62 61
 58 59 63 62
 </DataArray>
 <DataArray type="Int32" Name="offsets" format="ascii">
 4
 8
 12
 16
 20
 24
 28
 32
 36
 40
 44
 48
 52
 56
 60
 64
 68
 72
 76
 80
 84
 88
 92
 96
 100
 104
 108
 112
 116
 120
 124
 128
 132
 136
 140
 144
 148
 152
 156
 160
 164
 168
 172
 176
 180
 </DataArray>
 <DataArray type="UInt8" Name="types" format="ascii">
 9
 9
 9
 9
 9
 9
 9
 9
 9
 9
 9
 9
 9
 9
 9
 9
 9
 9
 9
 9
 9
 9
 9
 9
 9
 9
 9
 9
 9
 9
 9
 9
 9
 9
 9
 9
 9
 9
 9
 9
 9
 9
 9
 9
 9
 </DataArray>
</Cells>
<CellData>
 <DataArray Name="pos.x" type="Float32" NumberOfComponents="1" format="ascii">
 3.003333333333265548e-02
 3.010000000000045278e-02
 3.016666666666630373e-02
 3.003333333333286018e-02
 3.010000000000066442e-02
 3.016666666666666108e-02
 3.003333333333471633e-02
 3.009999999999919337e-02
 3.016666666666643903e-02
 3.003333333333279426e-02
 3.010000000000181627e-02
 3.016666666666511371e-02
 3.003333333333130933e-02
 3.009999999999857234e-02
 3.016666666666575555e-02
 3.003333333333104219e-02
 3.010000000000245812e-02
 3.016666666666632801e-02
 3.003333333333106994e-02
 3.009999999999949175e-02
 3.016666666666838539e-02
 3.003333333333460878e-02
 3.009999999999739620e-02
 3.016666666666591515e-02
 3.003333333333113586e-02
 3.009999999999991849e-02
 3.016666666666719190e-02
 3.003333333333255833e-02
 3.010000000000039033e-02
 3.016666666666612678e-02
 3.003333333333097280e-02
 3.009999999999952991e-02
 3.016666666666687618e-02
 3.003333333333320712e-02
 3.010000000000001216e-02
 3.016666666666567229e-02
 3.003333333333156954e-02
 3.010000000000213893e-02
 3.016666666666662985e-02
 3.003333333333185751e-02
 3.010000000000124382e-02
 3.016666666666653271e-02
 3.003333333333372407e-02
 3.010000000000029319e-02
 3.016666666666768803e-02
 </DataArray>
 <DataArray Name="pos.y" type="Float32" NumberOfComponents="1" format="ascii">
 1.362003200706682696e-04
 1.362003200706823913e-04
 1.362003200706682154e-04
 4.442396189786609970e-04
 4.442396189786480408e-04
 4.442396189786411561e-04
 8.319977781149517134e-04
 8.319977781149306799e-04
 8.319977781149155011e-04
 1.317835576242115713e-03
 1.317835576242266200e-03
 1.317835576242087090e-03
 1.923021448459188857e-03
 1.923021448459194928e-03
 1.923021448459187772e-03
 2.671426500394472135e-03
 2.671426500394701985e-03
 2.671426500394404480e-03
 3.588698052994770439e-03
 3.588698052994981208e-03
 3.588698052995166390e-03
 4.700704334221536725e-03
 4.700704334221082227e-03
 4.700704334221286057e-03
 6.031073798638425867e-03
 6.031073798638799700e-03
 6.031073798638611483e-03
 7.597777816686857900e-03
 7.597777816686660142e-03
 7.597777816686661877e-03
 9.408960338389650568e-03
 9.408960338390138026e-03
 9.408960338390131087e-03
 1.145859598586181256e-02
 1.145859598586127827e-02
 1.145859598586100245e-02
 1.372296631767029075e-02
 1.372296631767217119e-02
 1.372296631767064810e-02
 1.615918621120718962e-02
 1.615918621120910476e-02
 1.615918621120786269e-02
 1.870684798925342437e-02
 1.870684798925360132e-02
 1.870684798925350417e-02
 </DataArray>
 <DataArray Name="pos.z" type="Float32" NumberOfComponents="1" format="ascii">
 0.000000000000000000e+00
 0.000000000000000000e+00
 0.000000000000000000e+00
 0.000000000000000000e+00
 0.000000000000000000e+00
 0.000000000000000000e+00
 0.000000000000000000e+00
 0.000000000000000000e+00
 0.000000000000000000e+00
 0.000000000000000000e+00
 0.000000000000000000e+00
 0.000000000000000000e+00
 0.000000000000000000e+00
 0.000000000000000000e+00
 0.000000000000000000e+00
 0.000000000000000000e+00
 0.000000000000000000e+00
 0.000000000000000000e+00
 0.000000000000000000e+00
 0.000000000000000000e+00
 0.000000000000000000e+00
 0.000000000000000000e+00
 0.000000000000000000e+00
 0.000000000000000000e+00
 0.000000000000000000e+00
 0.000000000000000000e+00
 0.000000000000000000e+00
 0.000000000000000000e+00
 0.000000000000000000e+00
 0.000000000000000000e+00
 0.000000000000000000e+00
 0.000000000000000000e+00
 0.000000000000000000e+00
 0.000000000000000000e+00
 0.000000000000000000e+00
 0.000000000000000000e+00
 0.000000000000000000e+00
 0.000000000000000000e+00
 0.000000000000000000e+00
 0.000000000000000000e+00
 0.000000000000000000e+00
 0.000000000000000000e+00
 0.000000000000000000e+00
 0.000000000000000000e+00
 0.000000000000000000e+00
 </DataArray>
 <DataArray Name="volume" type="Float32" NumberOfComponents="1" format="ascii">
 1.816004267608962032e-08
 1.816004267608962032e-08
 1.816004267608962032e-08
 2.291186384497180470e-08
 2.291186384497538474e-08
 2.291186384497350539e-08
 2.878922403985734627e-08
 2.878922403986268655e-08
 2.878922403986086676e-08
 3.598914904376844567e-08
 3.598914904376685086e-08
 3.598914904376900815e-08
 4.470230058517784860e-08
 4.470230058517784860e-08
 4.470230058517446047e-08
 5.508503967286619389e-08
 5.508503967286280576e-08
 5.508503967286619389e-08
 6.721783400719371199e-08
 6.721783400719527371e-08
 6.721783400719184587e-08
 8.104967015631645809e-08
 8.104967015633473547e-08
 8.104967015632895183e-08
 9.633292509930503002e-08
 9.633292509930913284e-08
 9.633292509930713437e-08
 1.125609439737597464e-07
 1.125609439737743577e-07
 1.125609439737685211e-07
 1.289300589200117466e-07
 1.289300589200185229e-07
 1.289300589200117466e-07
 1.443546940761389972e-07
 1.443546940761607553e-07
 1.443546940761567584e-07
 1.575613501651008724e-07
 1.575613501650873199e-07
 1.575613501651008724e-07
 1.672679689731696286e-07
 1.672679689731540908e-07
 1.672679689731579554e-07
 1.724202680995667087e-07
 1.724202680995695675e-07
 1.724202680995616001e-07
 </DataArray>
 <DataArray Name="rho" type="Float32" NumberOfComponents="1" format="ascii">
 3.439484245216833380e-01
 3.793653210012380983e-01
 3.518815491603566326e-01
 1.577022667676152290e-01
 1.598337872839077634e-01
 1.499690155150874560e-01
 7.329506305725309867e-02
 7.184084321254192995e-02
 6.994933114170233390e-02
 3.467124209085998415e-02
 3.365407266243314321e-02
 3.451529597394063092e-02
 1.924455695160251154e-02
 1.873407177861152739e-02
 1.956955929323533558e-02
 1.309278075245873078e-02
 1.262269659523755812e-02
 1.268310697532199979e-02
 9.707663353815365950e-03
 9.674798326828493167e-03
 9.756421771409572868e-03
 7.352748621745395716e-03
 7.401837483675464784e-03
 7.470434321069671472e-03
 5.437328957489062815e-03
 5.553135568358425270e-03
 5.640690804613333713e-03
 4.530124161166988565e-03
 4.573798938506888102e-03
 4.626589333602433400e-03
 3.374868719287412670e-03
 3.323567252855816074e-03
 3.335345119618068899e-03
 3.192659723332797340e-03
 3.531101219559773605e-03
 3.405512349863421082e-03
 5.217969602892624098e-03
 5.218726813477998425e-03
 4.981437787882332310e-03
 1.358426848724523898e-02
 1.378672803458860091e-02
 1.457372271124849662e-02
 1.707301598761272118e-02
 1.573641407312289034e-02
 1.516322718398768581e-02
 </DataArray>
 <DataArray Name="vel.x" type="Float32" NumberOfComponents="1" format="ascii">
 -2.720090161495921848e+02
 4.650455800948770091e-01
 2.415248655118754755e+02
 -3.079875739488344379e+02
 -7.316750119026024457e+00
 3.008361509963786489e+02
 -2.894809286467590255e+02
 -4.263714706517447439e+00
 2.680446715564040687e+02
 -2.472825953623878945e+02
 -1.297237620171256189e+01
 2.006784354241148094e+02
 -1.694297202008521310e+02
 -2.017810019822162815e+01
 1.191813207961337895e+02
 -7.633785609778847459e+01
 -1.539071825429525475e+00
 7.753238214224892033e+01
 -3.277310847019474238e+01
 1.814134194277561818e+01
 6.317470458537174949e+01
 -2.189858849286641629e+01
 1.625219391357420307e+01
 5.204099329036679222e+01
 -2.956108627876136907e+01
 7.508997742453186186e-01
 3.334980808724517942e+01
 -2.413133366099273047e+01
 -2.120058707141192045e+00
 2.072919136468933132e+01
 -1.516113514960052022e+01
 1.850818146656850294e+00
 2.279788402386814994e+01
 9.401308869843029825e+00
 5.258854202210064166e+00
 -3.764744624546842555e+00
 1.170469381318098812e+02
 1.150436015219684691e+02
 1.237754118368128502e+02
 6.593999282027861852e+01
 1.034251125684368304e+02
 1.117584192808985790e+02
 -1.914317128490759785e+02
 -1.893529592880122436e+02
 -1.828853982969930883e+02
 </DataArray>
 <DataArray Name="vel.y" type="Float32" NumberOfComponents="1" format="ascii">
 1.803752278805701508e+03
 1.780898690338187180e+03
 1.803047146657020221e+03
 2.129447002533506293e+03
 2.133536798309284677e+03
 2.139236419210705662e+03
 2.339021869778332530e+03
 2.348026224231787182e+03
 2.341666295865492430e+03
 2.478043583346751802e+03
 2.486680559487091614e+03
 2.476693011013125215e+03
 2.559639483038779417e+03
 2.567048784251426696e+03
 2.559432115348225580e+03
 2.609405673626645694e+03
 2.614910244210746441e+03
 2.611269894004691196e+03
 2.636912292773160516e+03
 2.639625213661115595e+03
 2.637068700895305028e+03
 2.667048400003468487e+03
 2.667546339620148501e+03
 2.665554498362895629e+03
 2.684363126687280783e+03
 2.684981174600320628e+03
 2.683540698530035570e+03
 2.700951985033458186e+03
 2.701836754270781967e+03
 2.701019554524992600e+03
 2.721605880700602938e+03
 2.721849648598118620e+03
 2.721319783186384939e+03
 2.710582911088508354e+03
 2.709537809398199443e+03
 2.708581697763520879e+03
 2.091378948279342694e+03
 2.114784714549866294e+03
 2.108850747814453371e+03
 1.324036407104120144e+03
 1.346978698679315130e+03
 1.409195944571926248e+03
 6.224074322438599438e+02
 6.931172321336666755e+02
 7.455090528075835437e+02
 </DataArray>
 <DataArray Name="vel.z" type="Float32" NumberOfComponents="1" format="ascii">
 0.000000000000000000e+00
 0.000000000000000000e+00
 0.000000000000000000e+00
 0.000000000000000000e+00
 0.000000000000000000e+00
 0.000000000000000000e+00
 0.000000000000000000e+00
 0.000000000000000000e+00
 0.000000000000000000e+00
 0.000000000000000000e+00
 0.000000000000000000e+00
 0.000000000000000000e+00
 0.000000000000000000e+00
 0.000000000000000000e+00
 0.000000000000000000e+00
 0.000000000000000000e+00
 0.000000000000000000e+00
 0.000000000000000000e+00
 0.000000000000000000e+00
 0.000000000000000000e+00
 0.000000000000000000e+00
 0.000000000000000000e+00
 0.000000000000000000e+00
 0.000000000000000000e+00
 0.000000000000000000e+00
 0.000000000000000000e+00
 0.000000000000000000e+00
 0.000000000000000000e+00
 0.000000000000000000e+00
 0.000000000000000000e+00
 0.000000000000000000e+00
 0.000000000000000000e+00
 0.000000000000000000e+00
 0.000000000000000000e+00
 0.000000000000000000e+00
 0.000000000000000000e+00
 0.000000000000000000e+00
 0.000000000000000000e+00
 0.000000000000000000e+00
 0.000000000000000000e+00
 0.000000000000000000e+00
 0.000000000000000000e+00
 0.000000000000000000e+00
 0.000000000000000000e+00
 0.000000000000000000e+00
 </DataArray>
 <DataArray Name="p" type="Float32" NumberOfComponents="1" format="ascii">
 2.607124604907933099e+05
 2.956484872338891728e+05
 2.679926676863437751e+05
 8.546370303553172562e+04
 8.986914783674645878e+04
 8.021935352678131312e+04
 2.896772193908743429e+04
 2.947666804001351557e+04
 2.728412688594642896e+04
 1.027428525505204561e+04
 1.034229237420519712e+04
 1.029833988051543747e+04
 4.610847730732822129e+03
 4.523649889230744520e+03
 4.664531992080178497e+03
 2.764237430892355405e+03
 2.614879957527402894e+03
 2.579341962412820521e+03
 1.824683106258913995e+03
 1.773425610754202580e+03
 1.756785383464956567e+03
 1.232160307322638801e+03
 1.223018619951375968e+03
 1.220570266001175924e+03
 7.995597432479945610e+02
 8.055221219086545261e+02
 8.115203313355226555e+02
 6.129566290758936020e+02
 6.117279616656268217e+02
 6.140839268624619081e+02
 4.213558801857316780e+02
 4.141512572260977549e+02
 4.115180253623322528e+02
 2.952769379671038905e+02
 2.925506703246734332e+02
 3.085900327766539704e+02
 1.594429519425440276e+03
 1.560248652221100201e+03
 1.587535637241409631e+03
 7.112204725359724762e+03
 7.004037750963313556e+03
 6.623010454143865900e+03
 6.009328029350178440e+03
 6.205777641756858429e+03
 6.348862357806417094e+03
 </DataArray>
 <DataArray Name="a" type="Float32" NumberOfComponents="1" format="ascii">
 1.042803789091902445e+03
 1.057370975836558500e+03
 1.045277439205988912e+03
 8.817394131019550514e+02
 8.981303764498420605e+02
 8.760061945460863626e+02
 7.529882143048924945e+02
 7.672234232310769357e+02
 7.480517027503930194e+02
 6.520178389626081525e+02
 6.639845286240100677e+02
 6.542536860625052668e+02
 5.862796232910018261e+02
 5.885681694795219983e+02
 5.847656908197786834e+02
 5.503514216541784663e+02
 5.451527096186691779e+02
 5.401445551929516569e+02
 5.192837597625098169e+02
 5.128069425704651394e+02
 5.082559131359971616e+02
 4.903171867979849594e+02
 4.868723715533735685e+02
 4.841465435833464994e+02
 4.593048425096463347e+02
 4.561818126328205381e+02
 4.543096102824167133e+02
 4.405834598831529547e+02
 4.380351886478448478e+02
 4.363668570201651846e+02
 4.232183169321154423e+02
 4.228103641506713757e+02
 4.207192757698412038e+02
 3.642558422661936675e+02
 3.447556965570743728e+02
 3.605519047509836241e+02
 6.620482805332678709e+02
 6.548706426417344346e+02
 6.761248648780373287e+02
 8.602242224535629020e+02
 8.489846014912269538e+02
 8.068275359834124174e+02
 7.009610199821786409e+02
 7.420585239322739426e+02
 7.646913331995857561e+02
 </DataArray>
 <DataArray Name="mu" type="Float32" NumberOfComponents="1" format="ascii">
 6.816653901825547804e-06
 6.816653901825547804e-06
 6.816653901825547804e-06
 6.816653901825547804e-06
 6.816653901825547804e-06
 6.816653901825547804e-06
 6.816653901825547804e-06
 6.816653901825547804e-06
 6.816653901825547804e-06
 6.816653901825547804e-06
 6.816653901825547804e-06
 6.816653901825547804e-06
 6.816653901825547804e-06
 6.816653901825547804e-06
 6.816653901825547804e-06
 6.816653901825547804e-06
 6.816653901825547804e-06
 6.816653901825547804e-06
 6.816653901825547804e-06
 6.816653901825547804e-06
 6.816653901825547804e-06
 6.816653901825547804e-06
 6.816653901825547804e-06
 6.816653901825547804e-06
 6.816653901828720789e-06
 6.816653901828966429e-06
 6.816653901829091790e-06
 6.816653906275707290e-06
 6.816653905950733782e-06
 6.816653905846261586e-06
 6.816657444403297474e-06
 6.816657806453297236e-06
 6.816657904389369262e-06
 6.818493861331832452e-06
 6.818634012224694502e-06
 6.818505607624765289e-06
 7.007387406835741445e-06
 6.988220672994137887e-06
 6.978216947777463713e-06
 1.055333849038586576e-05
 9.820220196396846379e-06
 8.565705996825059368e-06
 2.105432070130514423e-05
 2.028131814219828624e-05
 1.973746624778571494e-05
 </DataArray>
 <DataArray Name="k" type="Float32" NumberOfComponents="1" format="ascii">
 1.315812390669794107e-01
 1.315812390669794107e-01
 1.315812390669794107e-01
 1.315812390669794107e-01
 1.315812390669794107e-01
 1.315812390669794107e-01
 1.315812390669794107e-01
 1.315812390669794107e-01
 1.315812390669794107e-01
 1.315812390669794107e-01
 1.315812390669794107e-01
 1.315812390669794107e-01
 1.315812390669794107e-01
 1.315812390669794107e-01
 1.315812390669794107e-01
 1.315812390669794107e-01
 1.315812390669794107e-01
 1.315812390669794107e-01
 1.315812390669794107e-01
 1.315812390669794107e-01
 1.315812390669794107e-01
 1.315812390669794107e-01
 1.315812390669794107e-01
 1.315812390669794107e-01
 1.315812390668436027e-01
 1.315812390668331389e-01
 1.315812390668278375e-01
 1.315812388738770433e-01
 1.315812388879763761e-01
 1.315812388925098053e-01
 1.315810853425816995e-01
 1.315810696320234285e-01
 1.315810653822521714e-01
 1.315014339129322862e-01
 1.314953581321723353e-01
 1.315009246745993399e-01
 1.236841173423760959e-01
 1.244447993602472158e-01
 1.248446298631779305e-01
 8.838854128328781090e-02
 8.616220094488684367e-02
 7.893520981283892735e-02
 6.328150401401033687e-02
 6.865598205402564935e-02
 7.176313171535150803e-02
 </DataArray>
 <DataArray Name="mu_t" type="Float32" NumberOfComponents="1" format="ascii">
 0.000000000000000000e+00
 0.000000000000000000e+00
 0.000000000000000000e+00
 0.000000000000000000e+00
 0.000000000000000000e+00
 0.000000000000000000e+00
 0.000000000000000000e+00
 0.000000000000000000e+00
 0.000000000000000000e+00
 0.000000000000000000e+00
 0.000000000000000000e+00
 0.000000000000000000e+00
 0.000000000000000000e+00
 0.000000000000000000e+00
 0.000000000000000000e+00
 0.000000000000000000e+00
 0.000000000000000000e+00
 0.000000000000000000e+00
 0.000000000000000000e+00
 0.000000000000000000e+00
 0.000000000000000000e+00
 0.000000000000000000e+00
 0.000000000000000000e+00
 0.000000000000000000e+00
 0.000000000000000000e+00
 0.000000000000000000e+00
 0.000000000000000000e+00
 0.000000000000000000e+00
 0.000000000000000000e+00
 0.000000000000000000e+00
 0.000000000000000000e+00
 0.000000000000000000e+00
 0.000000000000000000e+00
 0.000000000000000000e+00
 0.000000000000000000e+00
 0.000000000000000000e+00
 0.000000000000000000e+00
 0.000000000000000000e+00
 0.000000000000000000e+00
 0.000000000000000000e+00
 0.000000000000000000e+00
 0.000000000000000000e+00
 0.000000000000000000e+00
 0.000000000000000000e+00
 0.000000000000000000e+00
 </DataArray>
 <DataArray Name="k_t" type="Float32" NumberOfComponents="1" format="ascii">
 0.000000000000000000e+00
 0.000000000000000000e+00
 0.000000000000000000e+00
 0.000000000000000000e+00
 0.000000000000000000e+00
 0.000000000000000000e+00
 0.000000000000000000e+00
 0.000000000000000000e+00
 0.000000000000000000e+00
 0.000000000000000000e+00
 0.000000000000000000e+00
 0.000000000000000000e+00
 0.000000000000000000e+00
 0.000000000000000000e+00
 0.000000000000000000e+00
 0.000000000000000000e+00
 0.000000000000000000e+00
 0.000000000000000000e+00
 0.000000000000000000e+00
 0.000000000000000000e+00
 0.000000000000000000e+00
 0.000000000000000000e+00
 0.000000000000000000e+00
 0.000000000000000000e+00
 0.000000000000000000e+00
 0.000000000000000000e+00
 0.000000000000000000e+00
 0.000000000000000000e+00
 0.000000000000000000e+00
 0.000000000000000000e+00
 0.000000000000000000e+00
 0.000000000000000000e+00
 0.000000000000000000e+00
 0.000000000000000000e+00
 0.000000000000000000e+00
 0.000000000000000000e+00
 0.000000000000000000e+00
 0.000000000000000000e+00
 0.000000000000000000e+00
 0.000000000000000000e+00
 0.000000000000000000e+00
 0.000000000000000000e+00
 0.000000000000000000e+00
 0.000000000000000000e+00
 0.000000000000000000e+00
 </DataArray>
 <DataArray Name="S" type="Float32" NumberOfComponents="1" format="ascii">
 0.000000000000000000e+00
 0.000000000000000000e+00
 0.000000000000000000e+00
 0.000000000000000000e+00
 0.000000000000000000e+00
 0.000000000000000000e+00
 0.000000000000000000e+00
 0.000000000000000000e+00
 0.000000000000000000e+00
 0.000000000000000000e+00
 0.000000000000000000e+00
 0.000000000000000000e+00
 0.000000000000000000e+00
 0.000000000000000000e+00
 0.000000000000000000e+00
 0.000000000000000000e+00
 0.000000000000000000e+00
 0.000000000000000000e+00
 0.000000000000000000e+00
 0.000000000000000000e+00
 0.000000000000000000e+00
 0.000000000000000000e+00
 0.000000000000000000e+00
 0.000000000000000000e+00
 0.000000000000000000e+00
 0.000000000000000000e+00
 0.000000000000000000e+00
 0.000000000000000000e+00
 0.000000000000000000e+00
 0.000000000000000000e+00
 0.000000000000000000e+00
 0.000000000000000000e+00
 0.000000000000000000e+00
 1.000000000000000000e+00
 1.000000000000000000e+00
 1.000000000000000000e+00
 1.000000000000000000e+00
 1.000000000000000000e+00
 1.000000000000000000e+00
 1.000000000000000000e+00
 1.000000000000000000e+00
 1.000000000000000000e+00
 1.000000000000000000e+00
 1.000000000000000000e+00
 1.000000000000000000e+00
 </DataArray>
 <DataArray Name="tke" type="Float32" NumberOfComponents="1" format="ascii">
 0.000000000000000000e+00
 0.000000000000000000e+00
 0.000000000000000000e+00
 0.000000000000000000e+00
 0.000000000000000000e+00
 0.000000000000000000e+00
 0.000000000000000000e+00
 0.000000000000000000e+00
 0.000000000000000000e+00
 0.000000000000000000e+00
 0.000000000000000000e+00
 0.000000000000000000e+00
 0.000000000000000000e+00
 0.000000000000000000e+00
 0.000000000000000000e+00
 0.000000000000000000e+00
 0.000000000000000000e+00
 0.000000000000000000e+00
 0.000000000000000000e+00
 0.000000000000000000e+00
 0.000000000000000000e+00
 0.000000000000000000e+00
 0.000000000000000000e+00
 0.000000000000000000e+00
 0.000000000000000000e+00
 0.000000000000000000e+00
 0.000000000000000000e+00
 0.000000000000000000e+00
 0.000000000000000000e+00
 0.000000000000000000e+00
 0.000000000000000000e+00
 0.000000000000000000e+00
 0.000000000000000000e+00
 0.000000000000000000e+00
 0.000000000000000000e+00
 0.000000000000000000e+00
 0.000000000000000000e+00
 0.000000000000000000e+00
 0.000000000000000000e+00
 0.000000000000000000e+00
 0.000000000000000000e+00
 0.000000000000000000e+00
 0.000000000000000000e+00
 0.000000000000000000e+00
 0.000000000000000000e+00
 </DataArray>
 <DataArray Name="omega" type="Float32" NumberOfComponents="1" format="ascii">
 1.000000000000000000e+00
 1.000000000000000000e+00
 1.000000000000000000e+00
 1.000000000000000000e+00
 1.000000000000000000e+00
 1.000000000000000000e+00
 1.000000000000000000e+00
 1.000000000000000000e+00
 1.000000000000000000e+00
 1.000000000000000000e+00
 1.000000000000000000e+00
 1.000000000000000000e+00
 1.000000000000000000e+00
 1.000000000000000000e+00
 1.000000000000000000e+00
 1.000000000000000000e+00
 1.000000000000000000e+00
 1.000000000000000000e+00
 1.000000000000000000e+00
 1.000000000000000000e+00
 1.000000000000000000e+00
 1.000000000000000000e+00
 1.000000000000000000e+00
 1.000000000000000000e+00
 1.000000000000000000e+00
 1.000000000000000000e+00
 1.000000000000000000e+00
 1.000000000000000000e+00
 1.000000000000000000e+00
 1.000000000000000000e+00
 1.000000000000000000e+00
 1.000000000000000000e+00
 1.000000000000000000e+00
 1.000000000000000000e+00
 1.000000000000000000e+00
 1.000000000000000000e+00
 1.000000000000000000e+00
 1.000000000000000000e+00
 1.000000000000000000e+00
 1.000000000000000000e+00
 1.000000000000000000e+00
 1.000000000000000000e+00
 1.000000000000000000e+00
 1.000000000000000000e+00
 1.000000000000000000e+00
 </DataArray>
 <DataArray Name="massf[0]-H2" type="Float32" NumberOfComponents="1" format="ascii">
 1.000000000000000000e+00
 1.000000000000000000e+00
 1.000000000000000000e+00
 1.000000000000000000e+00
 1.000000000000000000e+00
 1.000000000000000000e+00
 1.000000000000000000e+00
 1.000000000000000000e+00
 1.000000000000000000e+00
 1.000000000000000000e+00
 1.000000000000000000e+00
 1.000000000000000000e+00
 1.000000000000000000e+00
 1.000000000000000000e+00
 1.000000000000000000e+00
 1.000000000000000000e+00
 1.000000000000000000e+00
 1.000000000000000000e+00
 1.000000000000000000e+00
 1.000000000000000000e+00
 1.000000000000000000e+00
 9.999999999999986677e-01
 9.999999999999983347e-01
 9.999999999999983347e-01
 9.999999999987645438e-01
 9.999999999986692867e-01
 9.999999999986209920e-01
 9.999999982509145680e-01
 9.999999983786294067e-01
 9.999999984196916714e-01
 9.999986076047221450e-01
 9.999984653026249282e-01
 9.999984268093132789e-01
 9.992771722875168905e-01
 9.992337495884667797e-01
 9.992725600790561824e-01
 9.287232908897965489e-01
 9.355673802547924689e-01
 9.391665811121922003e-01
 4.680755078192788132e-01
 4.933476979143296970e-01
 5.325927660465600288e-01
 1.386159449600257443e-01
 1.663079924399767373e-01
 1.839149268563971262e-01
 </DataArray>
 <DataArray Name="massf[1]-O2" type="Float32" NumberOfComponents="1" format="ascii">
 0.000000000000000000e+00
 0.000000000000000000e+00
 0.000000000000000000e+00
 0.000000000000000000e+00
 0.000000000000000000e+00
 0.000000000000000000e+00
 0.000000000000000000e+00
 0.000000000000000000e+00
 0.000000000000000000e+00
 0.000000000000000000e+00
 0.000000000000000000e+00
 0.000000000000000000e+00
 0.000000000000000000e+00
 0.000000000000000000e+00
 0.000000000000000000e+00
 1.998147129378376465e-23
 1.937119504453000483e-23
 1.727857261275531653e-23
 1.434580739510762115e-19
 1.859953849457354696e-19
 1.835764162819099856e-19
 4.905638441388040265e-16
 5.808282984002854612e-16
 5.961362398049478758e-16
 3.850441983279203221e-13
 4.158682062005595487e-13
 4.311785730652829323e-13
 3.851042668291441977e-10
 3.568689008870505908e-10
 3.478382002999296986e-10
 3.063271654955340242e-07
 3.376334737003840537e-07
 3.461020457289795986e-07
 1.590220968991719916e-04
 1.685750904860640537e-04
 1.600367826041604693e-04