<VTKFile type="UnstructuredGrid" byte_order="BigEndian">
<UnstructuredGrid><Piece NumberOfPoints="217" NumberOfCells="180">
<Points>
 <DataArray type="Float32" NumberOfComponents="3" format="ascii">
 2.999999932944774628e-02 0.000000000000000000e+00 0.000000000000000000e+00
 3.003333322703838348e-02 0.000000000000000000e+00 0.000000000000000000e+00
 3.006666712462902069e-02 0.000000000000000000e+00 0.000000000000000000e+00
 3.009999915957450867e-02 0.000000000000000000e+00 0.000000000000000000e+00
 3.013333305716514587e-02 0.000000000000000000e+00 0.000000000000000000e+00
 3.016666695475578308e-02 0.000000000000000000e+00 0.000000000000000000e+00
 3.020000085234642029e-02 0.000000000000000000e+00 0.000000000000000000e+00
 2.999999932944774628e-02 1.282335579162463546e-04 0.000000000000000000e+00
 3.003333322703838348e-02 1.282335579162463546e-04 0.000000000000000000e+00
 3.006666712462902069e-02 1.282335579162463546e-04 0.000000000000000000e+00
 3.009999915957450867e-02 1.282335579162463546e-04 0.000000000000000000e+00
 3.013333305716514587e-02 1.282335579162463546e-04 0.000000000000000000e+00
 3.016666695475578308e-02 1.282335579162463546e-04 0.000000000000000000e+00
 3.020000085234642029e-02 1.282335579162463546e-04 0.000000000000000000e+00
 2.999999932944774628e-02 2.724006481003016233e-04 0.000000000000000000e+00
 3.003333322703838348e-02 2.724006481003016233e-04 0.000000000000000000e+00
 3.006666712462902069e-02 2.724006481003016233e-04 0.000000000000000000e+00
 3.009999915957450867e-02 2.724006481003016233e-04 0.000000000000000000e+00
 3.013333305716514587e-02 2.724006481003016233e-04 0.000000000000000000e+00
 3.016666695475578308e-02 2.724006481003016233e-04 0.000000000000000000e+00
 3.020000085234642029e-02 2.724006481003016233e-04 0.000000000000000000e+00
 2.999999932944774628e-02 4.343430919107049704e-04 0.000000000000000000e+00
 3.003333322703838348e-02 4.343430919107049704e-04 0.000000000000000000e+00
 3.006666712462902069e-02 4.343430919107049704e-04 0.000000000000000000e+00
 3.009999915957450867e-02 4.343430919107049704e-04 0.000000000000000000e+00
 3.013333305716514587e-02 4.343430919107049704e-04 0.000000000000000000e+00
 3.016666695475578308e-02 4.343430919107049704e-04 0.000000000000000000e+00
 3.020000085234642029e-02 4.343430919107049704e-04 0.000000000000000000e+00
 2.999999932944774628e-02 6.160786142572760582e-04 0.000000000000000000e+00
 3.003333322703838348e-02 6.160786142572760582e-04 0.000000000000000000e+00
 3.006666712462902069e-02 6.160786142572760582e-04 0.000000000000000000e+00
 3.009999915957450867e-02 6.160786142572760582e-04 0.000000000000000000e+00
 3.013333305716514587e-02 6.160786142572760582e-04 0.000000000000000000e+00
 3.016666695475578308e-02 6.160786142572760582e-04 0.000000000000000000e+00
 3.020000085234642029e-02 6.160786142572760582e-04 0.000000000000000000e+00
 2.999999932944774628e-02 8.198075811378657818e-04 0.000000000000000000e+00
 3.003333322703838348e-02 8.198075811378657818e-04 0.000000000000000000e+00
 3.006666712462902069e-02 8.198075811378657818e-04 0.000000000000000000e+00
 3.009999915957450867e-02 8.198075811378657818e-04 0.000000000000000000e+00
 3.013333305716514587e-02 8.198075811378657818e-04 0.000000000000000000e+00
 3.016666695475578308e-02 8.198075811378657818e-04 0.000000000000000000e+00
 3.020000085234642029e-02 8.198075811378657818e-04 0.000000000000000000e+00
 2.999999932944774628e-02 1.047916943207383156e-03 0.000000000000000000e+00
 3.003333322703838348e-02 1.047916943207383156e-03 0.000000000000000000e+00
 3.006666712462902069e-02 1.047916943207383156e-03 0.000000000000000000e+00
 3.009999915957450867e-02 1.047916943207383156e-03 0.000000000000000000e+00
 3.013333305716514587e-02 1.047916943207383156e-03 0.000000000000000000e+00
 3.016666695475578308e-02 1.047916943207383156e-03 0.000000000000000000e+00
 3.020000085234642029e-02 1.047916943207383156e-03 0.000000000000000000e+00
 2.999999932944774628e-02 1.302980585023760796e-03 0.000000000000000000e+00
 3.003333322703838348e-02 1.302980585023760796e-03 0.000000000000000000e+00
 3.006666712462902069e-02 1.302980585023760796e-03 0.000000000000000000e+00
 3.009999915957450867e-02 1.302980585023760796e-03 0.000000000000000000e+00
 3.013333305716514587e-02 1.302980585023760796e-03 0.000000000000000000e+00
 3.016666695475578308e-02 1.302980585023760796e-03 0.000000000000000000e+00
 3.020000085234642029e-02 1.302980585023760796e-03 0.000000000000000000e+00
 2.999999932944774628e-02 1.587754231877624989e-03 0.000000000000000000e+00
 3.003333322703838348e-02 1.587754231877624989e-03 0.000000000000000000e+00
 3.006666712462902069e-02 1.587754231877624989e-03 0.000000000000000000e+00
 3.009999915957450867e-02 1.587754231877624989e-03 0.000000000000000000e+00
 3.013333305716514587e-02 1.587754231877624989e-03 0.000000000000000000e+00
 3.016666695475578308e-02 1.587754231877624989e-03 0.000000000000000000e+00
 3.020000085234642029e-02 1.587754231877624989e-03 0.000000000000000000e+00
 2.999999932944774628e-02 1.905164215713739395e-03 0.000000000000000000e+00
 3.003333322703838348e-02 1.905164215713739395e-03 0.000000000000000000e+00
 3.006666712462902069e-02 1.905164215713739395e-03 0.000000000000000000e+00
 3.009999915957450867e-02 1.905164215713739395e-03 0.000000000000000000e+00
 3.013333305716514587e-02 1.905164215713739395e-03 0.000000000000000000e+00
 3.016666695475578308e-02 1.905164215713739395e-03 0.000000000000000000e+00
 3.020000085234642029e-02 1.905164215713739395e-03 0.000000000000000000e+00
 2.999999932944774628e-02 2.258288674056529999e-03 0.000000000000000000e+00
 3.003333322703838348e-02 2.258288674056529999e-03 0.000000000000000000e+00
 3.006666712462902069e-02 2.258288674056529999e-03 0.000000000000000000e+00
 3.009999915957450867e-02 2.258288674056529999e-03 0.000000000000000000e+00
 3.013333305716514587e-02 2.258288674056529999e-03 0.000000000000000000e+00
 3.016666695475578308e-02 2.258288674056529999e-03 0.000000000000000000e+00
 3.020000085234642029e-02 2.258288674056529999e-03 0.000000000000000000e+00
 2.999999932944774628e-02 2.650327980518341064e-03 0.000000000000000000e+00
 3.003333322703838348e-02 2.650327980518341064e-03 0.000000000000000000e+00
 3.006666712462902069e-02 2.650327980518341064e-03 0.000000000000000000e+00
 3.009999915957450867e-02 2.650327980518341064e-03 0.000000000000000000e+00
 3.013333305716514587e-02 2.650327980518341064e-03 0.000000000000000000e+00
 3.016666695475578308e-02 2.650327980518341064e-03 0.000000000000000000e+00
 3.020000085234642029e-02 2.650327980518341064e-03 0.000000000000000000e+00
 2.999999932944774628e-02 3.084564348682761192e-03 0.000000000000000000e+00
 3.003333322703838348e-02 3.084564348682761192e-03 0.000000000000000000e+00
 3.006666712462902069e-02 3.084564348682761192e-03 0.000000000000000000e+00
 3.009999915957450867e-02 3.084564348682761192e-03 0.000000000000000000e+00
 3.013333305716514587e-02 3.084564348682761192e-03 0.000000000000000000e+00
 3.016666695475578308e-02 3.084564348682761192e-03 0.000000000000000000e+00
 3.020000085234642029e-02 3.084564348682761192e-03 0.000000000000000000e+00
 2.999999932944774628e-02 3.564308630302548409e-03 0.000000000000000000e+00
 3.003333322703838348e-02 3.564308630302548409e-03 0.000000000000000000e+00
 3.006666712462902069e-02 3.564308630302548409e-03 0.000000000000000000e+00
 3.009999915957450867e-02 3.564308630302548409e-03 0.000000000000000000e+00
 3.013333305716514587e-02 3.564308630302548409e-03 0.000000000000000000e+00
 3.016666695475578308e-02 3.564308630302548409e-03 0.000000000000000000e+00
 3.020000085234642029e-02 3.564308630302548409e-03 0.000000000000000000e+00
 2.999999932944774628e-02 4.092831630259752274e-03 0.000000000000000000e+00
 3.003333322703838348e-02 4.092831630259752274e-03 0.000000000000000000e+00
 3.006666712462902069e-02 4.092831630259752274e-03 0.000000000000000000e+00
 3.009999915957450867e-02 4.092831630259752274e-03 0.000000000000000000e+00
 3.013333305716514587e-02 4.092831630259752274e-03 0.000000000000000000e+00
 3.016666695475578308e-02 4.092831630259752274e-03 0.000000000000000000e+00
 3.020000085234642029e-02 4.092831630259752274e-03 0.000000000000000000e+00
 2.999999932944774628e-02 4.673280287533998489e-03 0.000000000000000000e+00
 3.003333322703838348e-02 4.673280287533998489e-03 0.000000000000000000e+00
 3.006666712462902069e-02 4.673280287533998489e-03 0.000000000000000000e+00
 3.009999915957450867e-02 4.673280287533998489e-03 0.000000000000000000e+00
 3.013333305716514587e-02 4.673280287533998489e-03 0.000000000000000000e+00
 3.016666695475578308e-02 4.673280287533998489e-03 0.000000000000000000e+00
 3.020000085234642029e-02 4.673280287533998489e-03 0.000000000000000000e+00
 2.999999932944774628e-02 5.308576859533786774e-03 0.000000000000000000e+00
 3.003333322703838348e-02 5.308576859533786774e-03 0.000000000000000000e+00
 3.006666712462902069e-02 5.308576859533786774e-03 0.000000000000000000e+00
 3.009999915957450867e-02 5.308576859533786774e-03 0.000000000000000000e+00
 3.013333305716514587e-02 5.308576859533786774e-03 0.000000000000000000e+00
 3.016666695475578308e-02 5.308576859533786774e-03 0.000000000000000000e+00
 3.020000085234642029e-02 5.308576859533786774e-03 0.000000000000000000e+00
 2.999999932944774628e-02 6.001302972435951233e-03 0.000000000000000000e+00
 3.003333322703838348e-02 6.001302972435951233e-03 0.000000000000000000e+00
 3.006666712462902069e-02 6.001302972435951233e-03 0.000000000000000000e+00
 3.009999915957450867e-02 6.001302972435951233e-03 0.000000000000000000e+00
 3.013333305716514587e-02 6.001302972435951233e-03 0.000000000000000000e+00
 3.016666695475578308e-02 6.001302972435951233e-03 0.000000000000000000e+00
 3.020000085234642029e-02 6.001302972435951233e-03 0.000000000000000000e+00
 2.999999932944774628e-02 6.753570865839719772e-03 0.000000000000000000e+00
 3.003333322703838348e-02 6.753570865839719772e-03 0.000000000000000000e+00
[...]
<CellData>
 <DataArray Name="pos.x" type="Float32" NumberOfComponents="1" format="ascii">
 3.001666666666768027e-02
 3.004999999999957705e-02
 3.008333333333011381e-02
 3.011666666667188810e-02
 3.014999999999621802e-02
 3.018333333333247936e-02
 3.001666666666346836e-02
 3.005000000000174892e-02
 3.008333333333253895e-02
 3.011666666666392225e-02
 3.015000000000470082e-02
 3.018333333333136914e-02
 3.001666666666191752e-02
 3.005000000000140892e-02
 3.008333333332973217e-02
 3.011666666666963643e-02
 3.015000000000191138e-02
 3.018333333333746843e-02
 3.001666666666897090e-02
 3.004999999999761334e-02
 3.008333333333293794e-02
 3.011666666666871009e-02
 3.015000000000381958e-02
 3.018333333332830215e-02
 3.001666666666390204e-02
 3.004999999999747803e-02
 3.008333333333286508e-02
 3.011666666666618780e-02
 3.014999999999894154e-02
 3.018333333333631310e-02
 3.001666666666500533e-02
 3.005000000000158239e-02
 3.008333333333346529e-02
 3.011666666666665271e-02
 3.015000000000137709e-02
 3.018333333333273957e-02
 3.001666666666375979e-02
 3.005000000000038196e-02
 3.008333333333421816e-02
 3.011666666666512615e-02
 3.015000000000272670e-02
 3.018333333333162588e-02
 3.001666666666711128e-02
 3.005000000000160668e-02
 3.008333333332759152e-02
 3.011666666667082298e-02
 3.014999999999711314e-02
 3.018333333333131016e-02
 3.001666666666453695e-02
 3.005000000000069768e-02
 3.008333333333243834e-02
 3.011666666666732231e-02
 3.015000000000053748e-02
 3.018333333333525145e-02
 3.001666666666633065e-02
 3.005000000000142280e-02
 3.008333333333436388e-02
 3.011666666666328041e-02
 3.015000000000520389e-02
 3.018333333332845828e-02
 3.001666666666126179e-02
 3.005000000000487489e-02
 3.008333333333224405e-02
 3.011666666666861988e-02
 3.015000000000226527e-02
 3.018333333333389837e-02
 3.001666666666484920e-02
 3.004999999999925439e-02
 3.008333333333261181e-02
 3.011666666666677414e-02
 3.015000000000093647e-02
 3.018333333333208732e-02
 3.001666666666368694e-02
 3.004999999999632271e-02
 3.008333333333387122e-02
 3.011666666666839437e-02
 3.015000000000273711e-02
 3.018333333333214977e-02
 3.001666666666211181e-02
 3.004999999999795682e-02
 3.008333333333302814e-02
 3.011666666666501513e-02
 3.015000000000368080e-02
 3.018333333333189650e-02
 3.001666666666182037e-02
 3.005000000000880925e-02
 3.008333333333065157e-02
 3.011666666666511574e-02
 3.014999999999345981e-02
 3.018333333333581697e-02
 3.001666666666560207e-02
 3.004999999999921623e-02
 3.008333333333085627e-02
 3.011666666666790518e-02
 3.014999999999902480e-02
 3.018333333333662882e-02
 3.001666666666082117e-02
 3.005000000000103422e-02
 3.008333333332464249e-02
 3.011666666667083686e-02
 3.015000000000160954e-02
 3.018333333333462695e-02
 3.001666666666862396e-02
 3.005000000000214791e-02
 3.008333333333272283e-02
 3.011666666666446696e-02
 3.015000000000304936e-02
 3.018333333333259039e-02
 3.001666666666957459e-02
 3.004999999999787008e-02
 3.008333333333318774e-02
 3.011666666666379041e-02
 3.015000000000284466e-02
 3.018333333333263202e-02
 3.001666666666195915e-02
 3.004999999999780416e-02
 3.008333333333718801e-02
 3.011666666666688169e-02
 3.015000000000138056e-02
 3.018333333333381510e-02
 3.001666666666738190e-02
 3.004999999999528187e-02
 3.008333333333373938e-02
 3.011666666666592065e-02
 3.015000000000210567e-02
 3.018333333333001953e-02
 3.001666666666468614e-02
 3.004999999999984073e-02
 3.008333333333226486e-02
 3.011666666666609413e-02
 3.014999999999738722e-02
 3.018333333333577534e-02
 3.001666666666444674e-02
 3.005000000000115565e-02
 3.008333333333298304e-02
 3.011666666666793293e-02
 3.014999999999554495e-02
 3.018333333333823865e-02
 3.001666666666473818e-02
 3.004999999999866458e-02
 3.008333333333537696e-02
 3.011666666666762762e-02
 3.015000000000219935e-02
 3.018333333333255569e-02
 3.001666666666256283e-02
 3.005000000000012869e-02
 3.008333333333488083e-02
 3.011666666666353367e-02
 3.014999999999806723e-02
 3.018333333333385327e-02
 3.001666666666804109e-02
 3.004999999999377613e-02
 3.008333333333710821e-02
 3.011666666666792599e-02
 3.015000000000268160e-02
 3.018333333333012708e-02
 3.001666666666220548e-02
 3.005000000000078789e-02
 3.008333333333443674e-02
 3.011666666667009440e-02
 3.015000000000208832e-02
 3.018333333333593493e-02
 3.001666666666753108e-02
 3.005000000000044788e-02
 3.008333333333335774e-02
 3.011666666666364123e-02
 3.015000000000334426e-02
 3.018333333332999524e-02
 3.001666666666039790e-02
 3.004999999999996910e-02
 3.008333333333699372e-02
 3.011666666666418940e-02
 3.014999999999970481e-02
 3.018333333333158078e-02
 3.001666666666619188e-02
 3.005000000000055543e-02
 3.008333333333343754e-02
 3.011666666666134445e-02
 3.015000000000266078e-02
 3.018333333333218099e-02
 </DataArray>
 <DataArray Name="pos.y" type="Float32" NumberOfComponents="1" format="ascii">
 6.411677893445844555e-05
 6.411677893444447289e-05
 6.411677893445241467e-05
 6.411677893445939423e-05
 6.411677893444733248e-05
 6.411677893444733248e-05
 2.003170990051210908e-04
 2.003170990051347789e-04
 2.003170990051302794e-04
 2.003170990051082159e-04
 2.003170990051502830e-04
 2.003170990051146669e-04
 3.533718597338339311e-04
 3.533718597338976280e-04
 3.533718597338494894e-04
 3.533718597338687882e-04
 3.533718597338996337e-04
 3.533718597338871112e-04
 5.252108385712132496e-04
 5.252108385711445112e-04
 5.252108385712069612e-04
 5.252108385711906982e-04
 5.252108385711919993e-04
 5.252108385711099251e-04
 7.179430794894657575e-04
 7.179430794894900436e-04
 7.179430794895251718e-04
 7.179430794895120529e-04
 7.179430794894270515e-04
 7.179430794895992228e-04
 9.338622597884821061e-04
 9.338622597884994533e-04
 9.338622597884748419e-04
 9.338622597884273539e-04
 9.338622597884933818e-04
 9.338622597884508811e-04
 1.175448770472163227e-03
 1.175448770472240856e-03
 1.175448770472289212e-03
 1.175448770472106415e-03
 1.175448770472315016e-03
 1.175448770472135038e-03
 1.445367388300563063e-03
 1.445367388300464835e-03
 1.445367388300271847e-03
 1.445367388300779904e-03
 1.445367388300345573e-03
 1.445367388300449222e-03
 1.746459228007445725e-03
 1.746459228007731304e-03
 1.746459228007533112e-03
 1.746459228007555013e-03
 1.746459228007538750e-03
 1.746459228007741062e-03
 2.081726482396461207e-03
 2.081726482396141584e-03
 2.081726482396542739e-03
 2.081726482396375772e-03
 2.081726482396702334e-03
 2.081726482396040537e-03
 2.454308306133311940e-03
 2.454308306133649344e-03
 2.454308306133280715e-03
 2.454308306133637201e-03
 2.454308306133425131e-03
 2.454308306133484111e-03
 2.867446103679876807e-03
 2.867446103679898058e-03
 2.867446103679941426e-03
 2.867446103680031198e-03
 2.867446103679962242e-03
 2.867446103679903695e-03
 3.324436478573451759e-03
 3.324436478573063181e-03
 3.324436478573538495e-03
 3.324436478573701993e-03
 3.324436478573663395e-03
 3.324436478573054507e-03
 3.828570233627114072e-03
 3.828570233627233768e-03
 3.828570233627768497e-03
 3.828570233626844323e-03
 3.828570233627896433e-03
 3.828570233627260656e-03
 4.383056128676093843e-03
 4.383056128677639482e-03
 4.383056128676457268e-03
 4.383056128676564821e-03
 4.383056128676390481e-03
 4.383056128676935184e-03
 4.990928654849240316e-03
 4.990928654848852605e-03
 4.990928654849267204e-03
 4.990928654849061639e-03
 4.990928654849298429e-03
 4.990928654849298429e-03
 5.654939916767303884e-03
 5.654939916767887619e-03
 5.654939916766871071e-03
 5.654939916767965681e-03
 5.654939916767853791e-03
 5.654939916768020325e-03
 6.377436855013345930e-03
 6.377436855012909647e-03
 6.377436855012105603e-03
 6.377436855012457752e-03
 6.377436855013094395e-03
 6.377436855011885293e-03
 7.160226489052190675e-03
 7.160226489050740446e-03
 7.160226489052130827e-03
 7.160226489051239179e-03
 7.160226489052698949e-03
 7.160226489050968562e-03
 8.004433568854343872e-03
 8.004433568854309178e-03
 8.004433568855180009e-03
 8.004433568855254602e-03
 8.004433568854702960e-03
 8.004433568855306644e-03
 8.910356885005519742e-03
 8.910356885003276745e-03
 8.910356885005511068e-03
 8.910356885004227373e-03
 8.910356885005070449e-03
 8.910356885004182270e-03
 9.877332326904837353e-03
 9.877332326904754087e-03
 9.877332326904811333e-03
 9.877332326904398468e-03
 9.877332326904440102e-03
 9.877332326905472262e-03
 1.090361235368733986e-02
 1.090361235368825406e-02
 1.090361235368718373e-02
 1.090361235368834426e-02
 1.090361235368527554e-02
 1.090361235368922724e-02
 1.198627255925855187e-02
 1.198627255925797247e-02
 1.198627255925983383e-02
 1.198627255925946607e-02
 1.198627255925916249e-02
 1.198627255925765502e-02
 1.312115616451755597e-02
 1.312115616451804863e-02
 1.312115616451958212e-02
 1.312115616451644574e-02
 1.312115616451824118e-02
 1.312115616451871823e-02
 1.430286629075764281e-02
 1.430286629075393050e-02
 1.430286629075839741e-02
 1.430286629075711545e-02
 1.430286629075694892e-02
 1.430286629075534777e-02
 1.552481360209541014e-02
 1.552481360209632434e-02
 1.552481360209885010e-02
 1.552481360209783182e-02
 1.552481360209831407e-02
 1.552481360209852224e-02
 1.677932336939752175e-02
 1.677932336939482946e-02
 1.677932336939743155e-02
 1.677932336939438190e-02
 1.677932336939804564e-02
 1.677932336939355271e-02
 1.805780143939949081e-02
 1.805780143940214147e-02
 1.805780143940466376e-02
 1.805780143940138860e-02
 1.805780143940144064e-02
 1.805780143940238780e-02
 1.935095345015018856e-02
 1.935095345014774260e-02
 1.935095345014982773e-02
 1.935095345014651441e-02
 1.935095345014990753e-02
 1.935095345014822138e-02
 </DataArray>
 <DataArray Name="pos.z" type="Float32" NumberOfComponents="1" format="ascii">
 0.000000000000000000e+00
 0.000000000000000000e+00
 0.000000000000000000e+00
 0.000000000000000000e+00
 0.000000000000000000e+00
 0.000000000000000000e+00
 0.000000000000000000e+00
 0.000000000000000000e+00
 0.000000000000000000e+00
 0.000000000000000000e+00
 0.000000000000000000e+00
 0.000000000000000000e+00
 0.000000000000000000e+00
 0.000000000000000000e+00
 0.000000000000000000e+00
 0.000000000000000000e+00
 0.000000000000000000e+00
 0.000000000000000000e+00
 0.000000000000000000e+00
 0.000000000000000000e+00
 0.000000000000000000e+00
 0.000000000000000000e+00
 0.000000000000000000e+00
 0.000000000000000000e+00
 0.000000000000000000e+00
 0.000000000000000000e+00
 0.000000000000000000e+00
 0.000000000000000000e+00
 0.000000000000000000e+00
 0.000000000000000000e+00
 0.000000000000000000e+00
 0.000000000000000000e+00
 0.000000000000000000e+00
 0.000000000000000000e+00
 0.000000000000000000e+00
 0.000000000000000000e+00
 0.000000000000000000e+00
 0.000000000000000000e+00
 0.000000000000000000e+00
 0.000000000000000000e+00
 0.000000000000000000e+00
 0.000000000000000000e+00
 0.000000000000000000e+00
 0.000000000000000000e+00
 0.000000000000000000e+00
 0.000000000000000000e+00
 0.000000000000000000e+00
 0.000000000000000000e+00
 0.000000000000000000e+00
 0.000000000000000000e+00
 0.000000000000000000e+00
 0.000000000000000000e+00
 0.000000000000000000e+00
 0.000000000000000000e+00
 0.000000000000000000e+00
 0.000000000000000000e+00
 0.000000000000000000e+00
 0.000000000000000000e+00
 0.000000000000000000e+00
 0.000000000000000000e+00
 0.000000000000000000e+00
 0.000000000000000000e+00
 0.000000000000000000e+00
 0.000000000000000000e+00
 0.000000000000000000e+00
 0.000000000000000000e+00
 0.000000000000000000e+00
 0.000000000000000000e+00
 0.000000000000000000e+00
 0.000000000000000000e+00
 0.000000000000000000e+00
 0.000000000000000000e+00
 0.000000000000000000e+00
 0.000000000000000000e+00
 0.000000000000000000e+00
 0.000000000000000000e+00
 0.000000000000000000e+00
 0.000000000000000000e+00
 0.000000000000000000e+00
 0.000000000000000000e+00
 0.000000000000000000e+00
 0.000000000000000000e+00
 0.000000000000000000e+00
 0.000000000000000000e+00
 0.000000000000000000e+00
 0.000000000000000000e+00
 0.000000000000000000e+00
 0.000000000000000000e+00
 0.000000000000000000e+00
 0.000000000000000000e+00
 0.000000000000000000e+00
 0.000000000000000000e+00
 0.000000000000000000e+00
 0.000000000000000000e+00
 0.000000000000000000e+00
 0.000000000000000000e+00
 0.000000000000000000e+00
 0.000000000000000000e+00
 0.000000000000000000e+00
 0.000000000000000000e+00
 0.000000000000000000e+00
 0.000000000000000000e+00
 0.000000000000000000e+00
 0.000000000000000000e+00
 0.000000000000000000e+00
 0.000000000000000000e+00
 0.000000000000000000e+00
 0.000000000000000000e+00
 0.000000000000000000e+00
 0.000000000000000000e+00
 0.000000000000000000e+00
 0.000000000000000000e+00
 0.000000000000000000e+00
 0.000000000000000000e+00
 0.000000000000000000e+00
 0.000000000000000000e+00
 0.000000000000000000e+00
 0.000000000000000000e+00
 0.000000000000000000e+00
 0.000000000000000000e+00
 0.000000000000000000e+00
 0.000000000000000000e+00
 0.000000000000000000e+00
 0.000000000000000000e+00
 0.000000000000000000e+00
 0.000000000000000000e+00
 0.000000000000000000e+00
 0.000000000000000000e+00
 0.000000000000000000e+00
 0.000000000000000000e+00
 0.000000000000000000e+00
 0.000000000000000000e+00
 0.000000000000000000e+00
 0.000000000000000000e+00
 0.000000000000000000e+00
 0.000000000000000000e+00
 0.000000000000000000e+00
 0.000000000000000000e+00
 0.000000000000000000e+00
 0.000000000000000000e+00
 0.000000000000000000e+00
 0.000000000000000000e+00
 0.000000000000000000e+00
 0.000000000000000000e+00
 0.000000000000000000e+00
 0.000000000000000000e+00
 0.000000000000000000e+00
 0.000000000000000000e+00
 0.000000000000000000e+00
 0.000000000000000000e+00
 0.000000000000000000e+00
 0.000000000000000000e+00
 0.000000000000000000e+00
 0.000000000000000000e+00
 0.000000000000000000e+00
 0.000000000000000000e+00
 0.000000000000000000e+00
 0.000000000000000000e+00
 0.000000000000000000e+00
 0.000000000000000000e+00
 0.000000000000000000e+00
 0.000000000000000000e+00
 0.000000000000000000e+00
 0.000000000000000000e+00
 0.000000000000000000e+00
 0.000000000000000000e+00
 0.000000000000000000e+00
 0.000000000000000000e+00
 0.000000000000000000e+00
 0.000000000000000000e+00
 0.000000000000000000e+00
 0.000000000000000000e+00
 0.000000000000000000e+00
 0.000000000000000000e+00
 0.000000000000000000e+00
 0.000000000000000000e+00
 0.000000000000000000e+00
 0.000000000000000000e+00
 0.000000000000000000e+00
 0.000000000000000000e+00
 </DataArray>
 <DataArray Name="volume" type="Float32" NumberOfComponents="1" format="ascii">
 4.274451928963768073e-09
 4.274451928962921040e-09
 4.274451928964615106e-09
 4.274451928962074007e-09
 4.274451928963768073e-09
 4.274451928963768073e-09
 4.805569409082736151e-09
 4.805569409079348019e-09
 4.805569409082736151e-09
 4.805569409081042085e-09
 4.805569409080195052e-09
 4.805569409081889118e-09
 5.398081306170338101e-09
 5.398081306166037589e-09
 5.398081306170400966e-09
 5.398081306167858213e-09
 5.398081306167737445e-09
 5.398081306167797002e-09
 6.057850616318918469e-09
 6.057850616317226057e-09
 6.057850616319959062e-09
 6.057850616317291405e-09
 6.057850616318866357e-09
 6.057850616318254243e-09
 6.790965444904007392e-09
 6.790965444902765794e-09
 6.790965444904846981e-09
 6.790965444902179323e-09
 6.790965444903992503e-09
 6.790965444902063518e-09
 7.603646575027853699e-09
 7.603646575025256352e-09
 7.603646575029101087e-09
 7.603646575026682411e-09
 7.603646575026559988e-09
 7.603646575027291216e-09
 8.502120803891935496e-09
 8.502120803886072440e-09
 8.502120803891000782e-09
 8.502120803888793864e-09
 8.502120803890003202e-09
 8.502120803888547364e-09
 9.492453717996340523e-09
 9.492453717993597592e-09
 9.492453717998272817e-09
 9.492453717990990318e-09
 9.492453717997766582e-09
 9.492453717992684384e-09
 1.058033559581385784e-08
 1.058033559581046971e-08
 1.058033559581216378e-08
 1.058033559581216378e-08
 1.058033559581216378e-08
 1.058033559581046971e-08
 1.177081469677506646e-08
 1.177081469677819486e-08
 1.177081469677531958e-08
 1.177081469677676052e-08
 1.177081469677313416e-08
 1.177081469677868620e-08
 1.306797355236204133e-08
 1.306797355235801462e-08
 1.306797355236765789e-08
 1.306797355235749349e-08
 1.306797355236209923e-08
 1.306797355235965078e-08
 1.447454628407390939e-08
 1.447454628406713312e-08
 1.447454628407729752e-08
 1.447454628406713312e-08
 1.447454628407269178e-08
 1.447454628407005803e-08
 1.599147870882928230e-08
 1.599147870882696289e-08
 1.599147870883136349e-08
 1.599147870882308176e-08
 1.599147870882913341e-08
 1.599147870882696289e-08
 1.761743829477220590e-08
 1.761743829476520796e-08
 1.761743829477381063e-08
 1.761743829476703437e-08
 1.761743829477042250e-08
 1.761743829476703437e-08
 1.934828804185762343e-08
 1.934828804184172502e-08
 1.934828804185999909e-08
 1.934828804184745904e-08
 1.934828804185423530e-08
 1.934828804185084717e-08
 2.117654703631487613e-08
 2.117654703630554554e-08
 2.117654703631701688e-08
 2.117654703630685248e-08
 2.117654703631024061e-08
 2.117654703631024061e-08
 2.309087042494029269e-08
 2.309087042492465898e-08
 2.309087042494570576e-08
 2.309087042492674016e-08
 2.309087042493690456e-08
 2.309087042493012830e-08
 2.507559212472111947e-08
 2.507559212471119331e-08
 2.507559212473122762e-08
 2.507559212471425718e-08
 2.507559212472343889e-08
 2.507559212471912431e-08
 2.711038347787925553e-08
 2.711038347787482515e-08
 2.711038347788365613e-08
 2.711038347787149658e-08
 2.711038347787586740e-08
 2.711038347787679384e-08
 2.917008850901469958e-08
 2.917008850900114705e-08
 2.917008850901469958e-08
 2.917008850899775892e-08
 2.917008850901035854e-08
 2.917008850900207350e-08
 3.122479923431522924e-08
 3.122479923431184111e-08
 3.122479923431861737e-08
 3.122479923430845298e-08
 3.122479923431522924e-08
 3.122479923431184111e-08
 3.324023022569616964e-08
 3.324023022568778534e-08
 3.324023022570147022e-08
 3.324023022568725594e-08
 3.324023022569403221e-08
 3.324023022569064408e-08
 3.517843822649748334e-08
 3.517843822647976844e-08
 3.517843822650153321e-08
 3.517843822649070707e-08
 3.517843822650235378e-08
 3.517843822648578370e-08
 3.699890881158767212e-08
 3.699890881157411960e-08
 3.699890881158767212e-08
 3.699890881158089586e-08
 3.699890881158767212e-08
 3.699890881158089586e-08
 3.865999820572746425e-08
 3.865999820571391172e-08
 3.865999820572746425e-08
 3.865999820572068799e-08
 3.865999820572746425e-08
 3.865999820571391172e-08
 4.012067687682974821e-08
 4.012067687682974821e-08
 4.012067687682974821e-08
 4.012067687682297195e-08
 4.012067687683165404e-08
 4.012067687682789533e-08
 4.134247721256355709e-08
 4.134247721254833697e-08
 4.134247721254572308e-08
 4.134247721255053396e-08
 4.134247721255144717e-08
 4.134247721254880019e-08
 4.229150727403480973e-08
 4.229150727402399021e-08
 4.229150727402412917e-08
 4.229150727403624572e-08
 4.229150727402468504e-08
 4.229150727403601410e-08
 4.294036405972972894e-08
 4.294036405970107540e-08
 4.294036405971071702e-08
 4.294036405970940015e-08
 4.294036405971617641e-08
 4.294036405970940015e-08
 4.326976999007817615e-08
 4.326976999006568904e-08
 4.326976999007676664e-08
 4.326976999006855439e-08
 4.326976999007435789e-08
 4.326976999007139989e-08
 </DataArray>
 <DataArray Name="rho" type="Float32" NumberOfComponents="1" format="ascii">
 4.208228609547388643e-01
 5.108509212327922988e-01
 5.527157424476492054e-01
 5.527260187645092193e-01
 5.110903847207591832e-01
 4.357835850654155352e-01
 2.530879203784163201e-01
 2.833713832898078211e-01
 3.105194493752829188e-01
 3.115617815625172926e-01
 2.878335372887679267e-01
 2.573510514735700139e-01
 1.630182153488322627e-01
 1.734987874485153236e-01
 1.874727008713971965e-01
 1.879374811227758069e-01
 1.756406328728079280e-01
 1.600972776099195694e-01
 1.048238163921072080e-01
 1.084223904015570172e-01
 1.154709507769251797e-01
 1.155401732345091165e-01
 1.090557534454688754e-01
 1.024316284733553378e-01
 6.843201969398329809e-02
 7.004423150286390176e-02
 7.380612629499462563e-02
 7.379021001720523221e-02
 7.077014883774990217e-02
 6.851980144708987031e-02
 4.629213630833788062e-02