<VTKFile type="UnstructuredGrid" byte_order="BigEndian">
<UnstructuredGrid><Piece NumberOfPoints="176" NumberOfCells="150">
<Points>
 <DataArray type="Float32" NumberOfComponents="3" format="ascii">
 0.000000000000000000e+00 0.000000000000000000e+00 0.000000000000000000e+00
 5.782573949545621872e-03 0.000000000000000000e+00 0.000000000000000000e+00
 1.118811592459678650e-02 0.000000000000000000e+00 0.000000000000000000e+00
 1.593190617859363556e-02 0.000000000000000000e+00 0.000000000000000000e+00
 1.986964419484138489e-02 0.000000000000000000e+00 0.000000000000000000e+00
 2.299007959663867950e-02 0.000000000000000000e+00 0.000000000000000000e+00
 2.537315338850021362e-02 0.000000000000000000e+00 0.000000000000000000e+00
 2.714225277304649353e-02 0.000000000000000000e+00 0.000000000000000000e+00
 2.842812426388263702e-02 0.000000000000000000e+00 0.000000000000000000e+00
 2.934848517179489136e-02 0.000000000000000000e+00 0.000000000000000000e+00
 2.999999932944774628e-02 0.000000000000000000e+00 0.000000000000000000e+00
 0.000000000000000000e+00 2.724006481003016233e-04 0.000000000000000000e+00
 5.782573949545621872e-03 2.724006481003016233e-04 0.000000000000000000e+00
 1.118811592459678650e-02 2.724006481003016233e-04 0.000000000000000000e+00
 1.593190617859363556e-02 2.724006481003016233e-04 0.000000000000000000e+00
 1.986964419484138489e-02 2.724006481003016233e-04 0.000000000000000000e+00
 2.299007959663867950e-02 2.724006481003016233e-04 0.000000000000000000e+00
 2.537315338850021362e-02 2.724006481003016233e-04 0.000000000000000000e+00
 2.714225277304649353e-02 2.724006481003016233e-04 0.000000000000000000e+00
 2.842812426388263702e-02 2.724006481003016233e-04 0.000000000000000000e+00
 2.934848517179489136e-02 2.724006481003016233e-04 0.000000000000000000e+00
 2.999999932944774628e-02 2.724006481003016233e-04 0.000000000000000000e+00
 0.000000000000000000e+00 6.160786142572760582e-04 0.000000000000000000e+00
 5.782573949545621872e-03 6.160786142572760582e-04 0.000000000000000000e+00
 1.118811592459678650e-02 6.160786142572760582e-04 0.000000000000000000e+00
 1.593190617859363556e-02 6.160786142572760582e-04 0.000000000000000000e+00
 1.986964419484138489e-02 6.160786142572760582e-04 0.000000000000000000e+00
 2.299007959663867950e-02 6.160786142572760582e-04 0.000000000000000000e+00
 2.537315338850021362e-02 6.160786142572760582e-04 0.000000000000000000e+00
 2.714225277304649353e-02 6.160786142572760582e-04 0.000000000000000000e+00
 2.842812426388263702e-02 6.160786142572760582e-04 0.000000000000000000e+00
 2.934848517179489136e-02 6.160786142572760582e-04 0.000000000000000000e+00
 2.999999932944774628e-02 6.160786142572760582e-04 0.000000000000000000e+00
 0.000000000000000000e+00 1.047916943207383156e-03 0.000000000000000000e+00
 5.782573949545621872e-03 1.047916943207383156e-03 0.000000000000000000e+00
 1.118811592459678650e-02 1.047916943207383156e-03 0.000000000000000000e+00
 1.593190617859363556e-02 1.047916943207383156e-03 0.000000000000000000e+00
 1.986964419484138489e-02 1.047916943207383156e-03 0.000000000000000000e+00
 2.299007959663867950e-02 1.047916943207383156e-03 0.000000000000000000e+00
 2.537315338850021362e-02 1.047916943207383156e-03 0.000000000000000000e+00
 2.714225277304649353e-02 1.047916943207383156e-03 0.000000000000000000e+00
 2.842812426388263702e-02 1.047916943207383156e-03 0.000000000000000000e+00
 2.934848517179489136e-02 1.047916943207383156e-03 0.000000000000000000e+00
 2.999999932944774628e-02 1.047916943207383156e-03 0.000000000000000000e+00
 0.000000000000000000e+00 1.587754231877624989e-03 0.000000000000000000e+00
 5.782573949545621872e-03 1.587754231877624989e-03 0.000000000000000000e+00
 1.118811592459678650e-02 1.587754231877624989e-03 0.000000000000000000e+00
 1.593190617859363556e-02 1.587754231877624989e-03 0.000000000000000000e+00
 1.986964419484138489e-02 1.587754231877624989e-03 0.000000000000000000e+00
 2.299007959663867950e-02 1.587754231877624989e-03 0.000000000000000000e+00
 2.537315338850021362e-02 1.587754231877624989e-03 0.000000000000000000e+00
 2.714225277304649353e-02 1.587754231877624989e-03 0.000000000000000000e+00
 2.842812426388263702e-02 1.587754231877624989e-03 0.000000000000000000e+00
 2.934848517179489136e-02 1.587754231877624989e-03 0.000000000000000000e+00
 2.999999932944774628e-02 1.587754231877624989e-03 0.000000000000000000e+00
 0.000000000000000000e+00 2.258288674056529999e-03 0.000000000000000000e+00
 5.782573949545621872e-03 2.258288674056529999e-03 0.000000000000000000e+00
 1.118811592459678650e-02 2.258288674056529999e-03 0.000000000000000000e+00
 1.593190617859363556e-02 2.258288674056529999e-03 0.000000000000000000e+00
 1.986964419484138489e-02 2.258288674056529999e-03 0.000000000000000000e+00
 2.299007959663867950e-02 2.258288674056529999e-03 0.000000000000000000e+00
 2.537315338850021362e-02 2.258288674056529999e-03 0.000000000000000000e+00
 2.714225277304649353e-02 2.258288674056529999e-03 0.000000000000000000e+00
 2.842812426388263702e-02 2.258288674056529999e-03 0.000000000000000000e+00
 2.934848517179489136e-02 2.258288674056529999e-03 0.000000000000000000e+00
 2.999999932944774628e-02 2.258288674056529999e-03 0.000000000000000000e+00
 0.000000000000000000e+00 3.084564348682761192e-03 0.000000000000000000e+00
 5.782573949545621872e-03 3.084564348682761192e-03 0.000000000000000000e+00
 1.118811592459678650e-02 3.084564348682761192e-03 0.000000000000000000e+00
 1.593190617859363556e-02 3.084564348682761192e-03 0.000000000000000000e+00
 1.986964419484138489e-02 3.084564348682761192e-03 0.000000000000000000e+00
 2.299007959663867950e-02 3.084564348682761192e-03 0.000000000000000000e+00
 2.537315338850021362e-02 3.084564348682761192e-03 0.000000000000000000e+00
 2.714225277304649353e-02 3.084564348682761192e-03 0.000000000000000000e+00
 2.842812426388263702e-02 3.084564348682761192e-03 0.000000000000000000e+00
 2.934848517179489136e-02 3.084564348682761192e-03 0.000000000000000000e+00
 2.999999932944774628e-02 3.084564348682761192e-03 0.000000000000000000e+00
 0.000000000000000000e+00 4.092831630259752274e-03 0.000000000000000000e+00
 5.782573949545621872e-03 4.092831630259752274e-03 0.000000000000000000e+00
 1.118811592459678650e-02 4.092831630259752274e-03 0.000000000000000000e+00
 1.593190617859363556e-02 4.092831630259752274e-03 0.000000000000000000e+00
 1.986964419484138489e-02 4.092831630259752274e-03 0.000000000000000000e+00
 2.299007959663867950e-02 4.092831630259752274e-03 0.000000000000000000e+00
 2.537315338850021362e-02 4.092831630259752274e-03 0.000000000000000000e+00
 2.714225277304649353e-02 4.092831630259752274e-03 0.000000000000000000e+00
 2.842812426388263702e-02 4.092831630259752274e-03 0.000000000000000000e+00
 2.934848517179489136e-02 4.092831630259752274e-03 0.000000000000000000e+00
 2.999999932944774628e-02 4.092831630259752274e-03 0.000000000000000000e+00
 0.000000000000000000e+00 5.308576859533786774e-03 0.000000000000000000e+00
 5.782573949545621872e-03 5.308576859533786774e-03 0.000000000000000000e+00
 1.118811592459678650e-02 5.308576859533786774e-03 0.000000000000000000e+00
 1.593190617859363556e-02 5.308576859533786774e-03 0.000000000000000000e+00
 1.986964419484138489e-02 5.308576859533786774e-03 0.000000000000000000e+00
 2.299007959663867950e-02 5.308576859533786774e-03 0.000000000000000000e+00
 2.537315338850021362e-02 5.308576859533786774e-03 0.000000000000000000e+00
 2.714225277304649353e-02 5.308576859533786774e-03 0.000000000000000000e+00
 2.842812426388263702e-02 5.308576859533786774e-03 0.000000000000000000e+00
 2.934848517179489136e-02 5.308576859533786774e-03 0.000000000000000000e+00
 2.999999932944774628e-02 5.308576859533786774e-03 0.000000000000000000e+00
 0.000000000000000000e+00 6.753570865839719772e-03 0.000000000000000000e+00
 5.782573949545621872e-03 6.753570865839719772e-03 0.000000000000000000e+00
 1.118811592459678650e-02 6.753570865839719772e-03 0.000000000000000000e+00
 1.593190617859363556e-02 6.753570865839719772e-03 0.000000000000000000e+00
 1.986964419484138489e-02 6.753570865839719772e-03 0.000000000000000000e+00
 2.299007959663867950e-02 6.753570865839719772e-03 0.000000000000000000e+00
 2.537315338850021362e-02 6.753570865839719772e-03 0.000000000000000000e+00
 2.714225277304649353e-02 6.753570865839719772e-03 0.000000000000000000e+00
 2.842812426388263702e-02 6.753570865839719772e-03 0.000000000000000000e+00
 2.934848517179489136e-02 6.753570865839719772e-03 0.000000000000000000e+00
 2.999999932944774628e-02 6.753570865839719772e-03 0.000000000000000000e+00
 0.000000000000000000e+00 8.441984653472900391e-03 0.000000000000000000e+00
 5.782573949545621872e-03 8.441984653472900391e-03 0.000000000000000000e+00
 1.118811592459678650e-02 8.441984653472900391e-03 0.000000000000000000e+00
 1.593190617859363556e-02 8.441984653472900391e-03 0.000000000000000000e+00
 1.986964419484138489e-02 8.441984653472900391e-03 0.000000000000000000e+00
 2.299007959663867950e-02 8.441984653472900391e-03 0.000000000000000000e+00
 2.537315338850021362e-02 8.441984653472900391e-03 0.000000000000000000e+00
 2.714225277304649353e-02 8.441984653472900391e-03 0.000000000000000000e+00
 2.842812426388263702e-02 8.441984653472900391e-03 0.000000000000000000e+00
 2.934848517179489136e-02 8.441984653472900391e-03 0.000000000000000000e+00
 2.999999932944774628e-02 8.441984653472900391e-03 0.000000000000000000e+00
 0.000000000000000000e+00 1.037593558430671692e-02 0.000000000000000000e+00
 5.782573949545621872e-03 1.037593558430671692e-02 0.000000000000000000e+00
 1.118811592459678650e-02 1.037593558430671692e-02 0.000000000000000000e+00
 1.593190617859363556e-02 1.037593558430671692e-02 0.000000000000000000e+00
 1.986964419484138489e-02 1.037593558430671692e-02 0.000000000000000000e+00
 2.299007959663867950e-02 1.037593558430671692e-02 0.000000000000000000e+00
 2.537315338850021362e-02 1.037593558430671692e-02 0.000000000000000000e+00
 2.714225277304649353e-02 1.037593558430671692e-02 0.000000000000000000e+00
 2.842812426388263702e-02 1.037593558430671692e-02 0.000000000000000000e+00
 2.934848517179489136e-02 1.037593558430671692e-02 0.000000000000000000e+00
 2.999999932944774628e-02 1.037593558430671692e-02 0.000000000000000000e+00
 0.000000000000000000e+00 1.254125591367483139e-02 0.000000000000000000e+00
 5.782573949545621872e-03 1.254125591367483139e-02 0.000000000000000000e+00
 1.118811592459678650e-02 1.254125591367483139e-02 0.000000000000000000e+00
 1.593190617859363556e-02 1.254125591367483139e-02 0.000000000000000000e+00
 1.986964419484138489e-02 1.254125591367483139e-02 0.000000000000000000e+00
 2.299007959663867950e-02 1.254125591367483139e-02 0.000000000000000000e+00
 2.537315338850021362e-02 1.254125591367483139e-02 0.000000000000000000e+00
 2.714225277304649353e-02 1.254125591367483139e-02 0.000000000000000000e+00
 2.842812426388263702e-02 1.254125591367483139e-02 0.000000000000000000e+00
 2.934848517179489136e-02 1.254125591367483139e-02 0.000000000000000000e+00
 2.999999932944774628e-02 1.254125591367483139e-02 0.000000000000000000e+00
 0.000000000000000000e+00 1.490467600524425507e-02 0.000000000000000000e+00
 5.782573949545621872e-03 1.490467600524425507e-02 0.000000000000000000e+00
 1.118811592459678650e-02 1.490467600524425507e-02 0.000000000000000000e+00
 1.593190617859363556e-02 1.490467600524425507e-02 0.000000000000000000e+00
 1.986964419484138489e-02 1.490467600524425507e-02 0.000000000000000000e+00
 2.299007959663867950e-02 1.490467600524425507e-02 0.000000000000000000e+00
 2.537315338850021362e-02 1.490467600524425507e-02 0.000000000000000000e+00
 2.714225277304649353e-02 1.490467600524425507e-02 0.000000000000000000e+00
 2.842812426388263702e-02 1.490467600524425507e-02 0.000000000000000000e+00
 2.934848517179489136e-02 1.490467600524425507e-02 0.000000000000000000e+00
 2.999999932944774628e-02 1.490467600524425507e-02 0.000000000000000000e+00
 0.000000000000000000e+00 1.741369627416133881e-02 0.000000000000000000e+00
 5.782573949545621872e-03 1.741369627416133881e-02 0.000000000000000000e+00
 1.118811592459678650e-02 1.741369627416133881e-02 0.000000000000000000e+00
 1.593190617859363556e-02 1.741369627416133881e-02 0.000000000000000000e+00
 1.986964419484138489e-02 1.741369627416133881e-02 0.000000000000000000e+00
 2.299007959663867950e-02 1.741369627416133881e-02 0.000000000000000000e+00
 2.537315338850021362e-02 1.741369627416133881e-02 0.000000000000000000e+00
 2.714225277304649353e-02 1.741369627416133881e-02 0.000000000000000000e+00
 2.842812426388263702e-02 1.741369627416133881e-02 0.000000000000000000e+00
 2.934848517179489136e-02 1.741369627416133881e-02 0.000000000000000000e+00
 2.999999932944774628e-02 1.741369627416133881e-02 0.000000000000000000e+00
 0.000000000000000000e+00 1.999999955296516418e-02 0.000000000000000000e+00
 5.782573949545621872e-03 1.999999955296516418e-02 0.000000000000000000e+00
 1.118811592459678650e-02 1.999999955296516418e-02 0.000000000000000000e+00
 1.593190617859363556e-02 1.999999955296516418e-02 0.000000000000000000e+00
 1.986964419484138489e-02 1.999999955296516418e-02 0.000000000000000000e+00
 2.299007959663867950e-02 1.999999955296516418e-02 0.000000000000000000e+00
 2.537315338850021362e-02 1.999999955296516418e-02 0.000000000000000000e+00
 2.714225277304649353e-02 1.999999955296516418e-02 0.000000000000000000e+00
 2.842812426388263702e-02 1.999999955296516418e-02 0.000000000000000000e+00
 2.934848517179489136e-02 1.999999955296516418e-02 0.000000000000000000e+00
 2.999999932944774628e-02 1.999999955296516418e-02 0.000000000000000000e+00
 </DataArray>
</Points>
<Cells>
 <DataArray type="Int32" Name="connectivity" format="ascii">
 0 1 12 11
 1 2 13 12
 2 3 14 13
 3 4 15 14
 4 5 16 15
 5 6 17 16
 6 7 18 17
 7 8 19 18
 8 9 20 19
 9 10 21 20
 11 12 23 22
 12 13 24 23
 13 14 25 24
 14 15 26 25
 15 16 27 26
 16 17 28 27
 17 18 29 28
 18 19 30 29
 19 20 31 30
 20 21 32 31
 22 23 34 33
 23 24 35 34
 24 25 36 35
 25 26 37 36
 26 27 38 37
 27 28 39 38
 28 29 40 39
 29 30 41 40
 30 31 42 41
 31 32 43 42
 33 34 45 44
 34 35 46 45
 35 36 47 46
 36 37 48 47
 37 38 49 48
 38 39 50 49
 39 40 51 50
 40 41 52 51
 41 42 53 52
 42 43 54 53
 44 45 56 55
 45 46 57 56
 46 47 58 57
 47 48 59 58
 48 49 60 59
 49 50 61 60
 50 51 62 61
 51 52 63 62
 52 53 64 63
 53 54 65 64
 55 56 67 66
 56 57 68 67
 57 58 69 68
 58 59 70 69
 59 60 71 70
 60 61 72 71
 61 62 73 72
 62 63 74 73
 63 64 75 74
 64 65 76 75
 66 67 78 77
 67 68 79 78
 68 69 80 79
 69 70 81 80
 70 71 82 81
 71 72 83 82
 72 73 84 83
 73 74 85 84
 74 75 86 85
 75 76 87 86
 77 78 89 88
 78 79 90 89
 79 80 91 90
 80 81 92 91
 81 82 93 92
 82 83 94 93
 83 84 95 94
 84 85 96 95
 85 86 97 96
 86 87 98 97
 88 89 100 99
 89 90 101 100
 90 91 102 101
 91 92 103 102
 92 93 104 103
 93 94 105 104
 94 95 106 105
 95 96 107 106
 96 97 108 107
 97 98 109 108
 99 100 111 110
 100 101 112 111
 101 102 113 112
 102 103 114 113
 103 104 115 114
 104 105 116 115
 105 106 117 116
 106 107 118 117
 107 108 119 118
 108 109 120 119
 110 111 122 121
 111 112 123 122
 112 113 124 123
 113 114 125 124
 114 115 126 125
 115 116 127 126
 116 117 128 127
 117 118 129 128
 118 119 130 129
 119 120 131 130
 121 122 133 132
 122 123 134 133
 123 124 135 134
 124 125 136 135
 125 126 137 136
 126 127 138 137
 127 128 139 138
 128 129 140 139
 129 130 141 140
 130 131 142 141
 132 133 144 143
 133 134 145 144
 134 135 146 145
 135 136 147 146
 136 137 148 147
 137 138 149 148
 138 139 150 149
 139 140 151 150
 140 141 152 151
 141 142 153 152
 143 144 155 154
 144 145 156 155
 145 146 157 156
 146 147 158 157
 147 148 159 158
 148 149 160 159
 149 150 161 160
 150 151 162 161
 151 152 163 162
 152 153 164 163
 154 155 166 165
 155 156 167 166
 156 157 168 167
 157 158 169 168
 158 159 170 169
 159 160 171 170
 160 161 172 171
 161 162 173 172
 162 163 174 173
 163 164 175 174
 </DataArray>
 <DataArray type="Int32" Name="offsets" format="ascii">
 4
 8
 12
 16
 20
 24
 28
 32
 36
 40
 44
 48
 52
 56
 60
 64
 68
 72
 76
 80
 84
 88
 92
 96
 100
 104
 108
 112
 116
 120
 124
 128
 132
 136
 140
 144
 148
 152
 156
 160
 164
 168
 172
 176
 180
 184
 188
 192
 196
 200
 204
 208
 212
 216
 220
 224
 228
 232
 236
 240
 244
 248
 252
 256
 260
 264
 268
 272
 276
 280
 284
 288
 292
 296
 300
 304
 308
 312
 316
 320
 324
 328
 332
 336
 340
 344
 348
 352
 356
 360
 364
 368
 372
 376
 380
 384
 388
 392
 396
 400
 404
 408
 412
 416
 420
 424
 428
 432
 436
 440
 444
 448
 452
 456
 460
 464
 468
 472
 476
 480
 484
 488
 492
 496
 500
 504
 508
 512
 516
 520
 524
 528
 532
 536
 540
 544
 548
 552
 556
 560
 564
 568
 572
 576
 580
 584
 588
 592
 596
 600
 </DataArray>
 <DataArray type="UInt8" Name="types" format="ascii">
 9
 9
 9
 9
 9
 9
 9
 9
 9
 9
 9
 9
 9
 9
 9
 9
 9
 9
 9
 9
 9
 9
 9
 9
 9
 9
 9
 9
 9
 9
 9
 9
 9
 9
 9
 9
 9
 9
 9
 9
 9
 9
 9
 9
 9
 9
 9
 9
 9
 9
 9
 9
 9
 9
 9
 9
 9
 9
 9
 9
 9
 9
 9
 9
 9
 9
 9
 9
 9
 9
 9
 9
 9
 9
 9
 9
 9
 9
 9
 9
 9
 9
 9
 9
 9
 9
 9
 9
 9
 9
 9
 9
 9
 9
 9
 9
 9
 9
 9
 9
 9
 9
 9
 9
 9
 9
 9
 9
 9
 9
 9
 9
 9
 9
 9
 9
 9
 9
 9
 9
 9
 9
 9
 9
 9
 9
 9
 9
 9
 9
 9
 9
 9
 9
 9
 9
 9
 9
 9
 9
 9
 9
 9
 9
 9
 9
 9
 9
 9
 9
 </DataArray>
</Cells>
<CellData>
 <DataArray Name="pos.x" type="Float32" NumberOfComponents="1" format="ascii">
 2.891286929785836721e-03
 8.485344786211485371e-03
 1.356001120128611653e-02
 1.790077529219789160e-02
 2.142986161035908069e-02
 2.418161643956588322e-02
 2.625770358008565342e-02
 2.778518908473091853e-02
 2.888830497169488434e-02
 2.967424269050517038e-02
 2.891286929785836721e-03
 8.485344786211481902e-03
 1.356001120128612694e-02
 1.790077529219789507e-02
 2.142986161035905293e-02
 2.418161643956588322e-02
 2.625770358008571240e-02
 2.778518908473086996e-02
 2.888830497169481495e-02
 2.967424269050535079e-02
 2.891286929785836287e-03
 8.485344786211478432e-03
 1.356001120128612347e-02
 1.790077529219789160e-02
 2.142986161035903558e-02
 2.418161643956591098e-02
 2.625770358008568464e-02
 2.778518908473099833e-02
 2.888830497169488434e-02
 2.967424269050511140e-02
 2.891286929785838022e-03
 8.485344786211485371e-03
 1.356001120128612000e-02
 1.790077529219789854e-02
 2.142986161035902865e-02
 2.418161643956586934e-02
 2.625770358008567770e-02
 2.778518908473097404e-02
 2.888830497169482536e-02
 2.967424269050529875e-02
 2.891286929785838889e-03
 8.485344786211481902e-03
 1.356001120128613388e-02
 1.790077529219789507e-02
 2.142986161035903558e-02
 2.418161643956585199e-02
 2.625770358008563260e-02
 2.778518908473103996e-02
 2.888830497169481842e-02
 2.967424269050520508e-02
 2.891286929785836721e-03
 8.485344786211487106e-03
 1.356001120128611653e-02
 1.790077529219788466e-02
 2.142986161035904599e-02
 2.418161643956587628e-02
 2.625770358008566382e-02
 2.778518908473102608e-02
 2.888830497169491557e-02
 2.967424269050529875e-02
 2.891286929785837154e-03
 8.485344786211487106e-03
 1.356001120128612174e-02
 1.790077529219788466e-02
 2.142986161035906334e-02
 2.418161643956586587e-02
 2.625770358008561872e-02
 2.778518908473118221e-02
 2.888830497169481495e-02
 2.967424269050536120e-02
 2.891286929785835853e-03
 8.485344786211490575e-03
 1.356001120128611133e-02
 1.790077529219789160e-02
 2.142986161035907375e-02
 2.418161643956584506e-02
 2.625770358008563260e-02
 2.778518908473101914e-02
 2.888830497169483577e-02
 2.967424269050548610e-02
 2.891286929785838022e-03
 8.485344786211483636e-03
 1.356001120128611827e-02
 1.790077529219790201e-02
 2.142986161035906334e-02
 2.418161643956581730e-02
 2.625770358008568117e-02
 2.778518908473102955e-02
 2.888830497169486006e-02
 2.967424269050542365e-02
 2.891286929785837154e-03
 8.485344786211481902e-03
 1.356001120128611827e-02
 1.790077529219789854e-02
 2.142986161035906681e-02
 2.418161643956584853e-02
 2.625770358008571587e-02
 2.778518908473102261e-02
 2.888830497169491210e-02
 2.967424269050503161e-02
 2.891286929785838455e-03
 8.485344786211481902e-03
 1.356001120128611653e-02
 1.790077529219790201e-02
 2.142986161035902865e-02
 2.418161643956588669e-02
 2.625770358008569505e-02
 2.778518908473103302e-02
 2.888830497169486006e-02
 2.967424269050534039e-02
 2.891286929785836287e-03
 8.485344786211481902e-03
 1.356001120128612174e-02
 1.790077529219789160e-02
 2.142986161035905293e-02
 2.418161643956584853e-02
 2.625770358008573321e-02
 2.778518908473091506e-02
 2.888830497169497802e-02
 2.967424269050498303e-02
 2.891286929785835420e-03
 8.485344786211485371e-03
 1.356001120128612000e-02
 1.790077529219790201e-02
 2.142986161035902865e-02
 2.418161643956586240e-02
 2.625770358008570199e-02
 2.778518908473102608e-02
 2.888830497169492251e-02
 2.967424269050496916e-02
 2.891286929785837154e-03
 8.485344786211481902e-03
 1.356001120128612000e-02
 1.790077529219788813e-02
 2.142986161035905293e-02
 2.418161643956587628e-02
 2.625770358008565689e-02
 2.778518908473107812e-02
 2.888830497169472822e-02
 2.967424269050523283e-02
 2.891286929785836721e-03
 8.485344786211483636e-03
 1.356001120128612000e-02
 1.790077529219788119e-02
 2.142986161035906681e-02
 2.418161643956587628e-02
 2.625770358008561525e-02
 2.778518908473101914e-02
 2.888830497169492945e-02
 2.967424269050504548e-02
 </DataArray>
 <DataArray Name="pos.y" type="Float32" NumberOfComponents="1" format="ascii">
 1.362003200706729316e-04
 1.362003200706729587e-04
 1.362003200706729316e-04
 1.362003200706729858e-04
 1.362003200706730401e-04
 1.362003200706730130e-04
 1.362003200706729316e-04
 1.362003200706724709e-04
 1.362003200706735822e-04
 1.362003200706730672e-04
 4.442396189786489082e-04
 4.442396189786490166e-04
 4.442396189786493961e-04
 4.442396189786490166e-04
 4.442396189786490166e-04
 4.442396189786495045e-04
 4.442396189786495587e-04
 4.442396189786463603e-04
 4.442396189786500466e-04
 4.442396189786497213e-04
 8.319977781149109474e-04
 8.319977781149109474e-04
 8.319977781149118148e-04
 8.319977781149112727e-04
 8.319977781149112727e-04
 8.319977781149112727e-04
 8.319977781149123569e-04
 8.319977781149107306e-04
 8.319977781149109474e-04
 8.319977781149097548e-04
 1.317835576242136746e-03
 1.317835576242136746e-03
 1.317835576242136746e-03
 1.317835576242136963e-03
 1.317835576242134578e-03
 1.317835576242137180e-03
 1.317835576242138915e-03
 1.317835576242133060e-03
 1.317835576242139132e-03
 1.317835576242138481e-03
 1.923021448459224635e-03
 1.923021448459223985e-03
 1.923021448459226370e-03
 1.923021448459224418e-03
 1.923021448459223768e-03
 1.923021448459223985e-03
 1.923021448459222467e-03
 1.923021448459228322e-03
 1.923021448459224852e-03
 1.923021448459221600e-03
 2.671426500394536753e-03
 2.671426500394535886e-03
 2.671426500394535018e-03
 2.671426500394533284e-03
 2.671426500394532850e-03
 2.671426500394537187e-03
 2.671426500394535018e-03
 2.671426500394530681e-03
 2.671426500394538488e-03
 2.671426500394540222e-03
 3.588698052994977305e-03
 3.588698052994979473e-03
 3.588698052994979473e-03
 3.588698052994978172e-03
 3.588698052994978606e-03
 3.588698052994980341e-03
 3.588698052994972534e-03
 3.588698052994989882e-03
 3.588698052994980341e-03
 3.588698052994986412e-03
 4.700704334221375395e-03
 4.700704334221379732e-03
 4.700704334221374528e-03
 4.700704334221375395e-03
 4.700704334221377130e-03
 4.700704334221376263e-03
 4.700704334221368456e-03
 4.700704334221371926e-03
 4.700704334221378865e-03
 4.700704334221404886e-03
 6.031073798638627095e-03
 6.031073798638627095e-03
 6.031073798638624493e-03
 6.031073798638628830e-03
 6.031073798638629697e-03
 6.031073798638619289e-03
 6.031073798638634902e-03
 6.031073798638629697e-03
 6.031073798638617554e-03
 6.031073798638664392e-03
 7.597777816686694836e-03
 7.597777816686698306e-03
 7.597777816686695704e-03
 7.597777816686700041e-03
 7.597777816686697439e-03
 7.597777816686692234e-03
 7.597777816686702643e-03
 7.597777816686706112e-03
 7.597777816686713918e-03
 7.597777816686644529e-03
 9.408960338390068637e-03
 9.408960338390066902e-03
 9.408960338390063433e-03
 9.408960338390070371e-03
 9.408960338390058228e-03
 9.408960338390070371e-03
 9.408960338390073841e-03
 9.408960338390063433e-03
 9.408960338390084249e-03
 9.408960338390073841e-03
 1.145859598586131470e-02
 1.145859598586131123e-02
 1.145859598586131296e-02
 1.145859598586130949e-02
 1.145859598586132164e-02
 1.145859598586130602e-02
 1.145859598586133898e-02
 1.145859598586126786e-02
 1.145859598586138409e-02
 1.145859598586121582e-02
 1.372296631767073831e-02
 1.372296631767074004e-02
 1.372296631767073657e-02
 1.372296631767074004e-02
 1.372296631767071402e-02
 1.372296631767074351e-02
 1.372296631767074004e-02
 1.372296631767073311e-02
 1.372296631767079209e-02
 1.372296631767060127e-02
 1.615918621120771698e-02
 1.615918621120771698e-02
 1.615918621120771351e-02
 1.615918621120771004e-02
 1.615918621120773085e-02
 1.615918621120774126e-02
 1.615918621120771351e-02
 1.615918621120774473e-02
 1.615918621120767187e-02
 1.615918621120766493e-02
 1.870684798925322662e-02
 1.870684798925323702e-02
 1.870684798925322662e-02
 1.870684798925322315e-02
 1.870684798925323702e-02
 1.870684798925323702e-02
 1.870684798925320927e-02
 1.870684798925325090e-02
 1.870684798925322315e-02
 1.870684798925315029e-02
 </DataArray>
 <DataArray Name="pos.z" type="Float32" NumberOfComponents="1" format="ascii">
 0.000000000000000000e+00
 0.000000000000000000e+00
 0.000000000000000000e+00
 0.000000000000000000e+00
 0.000000000000000000e+00
 0.000000000000000000e+00
 0.000000000000000000e+00
 0.000000000000000000e+00
 0.000000000000000000e+00
 0.000000000000000000e+00
 0.000000000000000000e+00
 0.000000000000000000e+00
 0.000000000000000000e+00
 0.000000000000000000e+00
 0.000000000000000000e+00
 0.000000000000000000e+00
 0.000000000000000000e+00
 0.000000000000000000e+00
 0.000000000000000000e+00
 0.000000000000000000e+00
 0.000000000000000000e+00
 0.000000000000000000e+00
 0.000000000000000000e+00
 0.000000000000000000e+00
 0.000000000000000000e+00
 0.000000000000000000e+00
 0.000000000000000000e+00
 0.000000000000000000e+00
 0.000000000000000000e+00
 0.000000000000000000e+00
 0.000000000000000000e+00
 0.000000000000000000e+00
 0.000000000000000000e+00
 0.000000000000000000e+00
 0.000000000000000000e+00
 0.000000000000000000e+00
 0.000000000000000000e+00
 0.000000000000000000e+00
 0.000000000000000000e+00
 0.000000000000000000e+00
 0.000000000000000000e+00
 0.000000000000000000e+00
 0.000000000000000000e+00
 0.000000000000000000e+00
 0.000000000000000000e+00
 0.000000000000000000e+00
 0.000000000000000000e+00
 0.000000000000000000e+00
 0.000000000000000000e+00
 0.000000000000000000e+00
 0.000000000000000000e+00
 0.000000000000000000e+00
 0.000000000000000000e+00
 0.000000000000000000e+00
 0.000000000000000000e+00
 0.000000000000000000e+00
 0.000000000000000000e+00
 0.000000000000000000e+00
 0.000000000000000000e+00
 0.000000000000000000e+00
 0.000000000000000000e+00
 0.000000000000000000e+00
 0.000000000000000000e+00
 0.000000000000000000e+00
 0.000000000000000000e+00
 0.000000000000000000e+00
 0.000000000000000000e+00
 0.000000000000000000e+00
 0.000000000000000000e+00
 0.000000000000000000e+00
 0.000000000000000000e+00
 0.000000000000000000e+00
 0.000000000000000000e+00
 0.000000000000000000e+00
 0.000000000000000000e+00
 0.000000000000000000e+00
 0.000000000000000000e+00
 0.000000000000000000e+00
 0.000000000000000000e+00
 0.000000000000000000e+00
 0.000000000000000000e+00
 0.000000000000000000e+00
 0.000000000000000000e+00
 0.000000000000000000e+00
 0.000000000000000000e+00
 0.000000000000000000e+00
 0.000000000000000000e+00
 0.000000000000000000e+00
 0.000000000000000000e+00
 0.000000000000000000e+00
 0.000000000000000000e+00
 0.000000000000000000e+00
 0.000000000000000000e+00
 0.000000000000000000e+00
 0.000000000000000000e+00
 0.000000000000000000e+00
 0.000000000000000000e+00
 0.000000000000000000e+00
 0.000000000000000000e+00
 0.000000000000000000e+00
 0.000000000000000000e+00
 0.000000000000000000e+00
 0.000000000000000000e+00
 0.000000000000000000e+00
 0.000000000000000000e+00
 0.000000000000000000e+00
 0.000000000000000000e+00
 0.000000000000000000e+00
 0.000000000000000000e+00
 0.000000000000000000e+00
 0.000000000000000000e+00
 0.000000000000000000e+00
 0.000000000000000000e+00
 0.000000000000000000e+00
 0.000000000000000000e+00
 0.000000000000000000e+00
 0.000000000000000000e+00
 0.000000000000000000e+00
 0.000000000000000000e+00
 0.000000000000000000e+00
 0.000000000000000000e+00
 0.000000000000000000e+00
 0.000000000000000000e+00
 0.000000000000000000e+00
 0.000000000000000000e+00
 0.000000000000000000e+00
 0.000000000000000000e+00
 0.000000000000000000e+00
 0.000000000000000000e+00
 0.000000000000000000e+00
 0.000000000000000000e+00
 0.000000000000000000e+00
 0.000000000000000000e+00
 0.000000000000000000e+00
 0.000000000000000000e+00
 0.000000000000000000e+00
 0.000000000000000000e+00
 0.000000000000000000e+00
 0.000000000000000000e+00
 0.000000000000000000e+00
 0.000000000000000000e+00
 0.000000000000000000e+00
 0.000000000000000000e+00
 0.000000000000000000e+00
 0.000000000000000000e+00
 0.000000000000000000e+00
 0.000000000000000000e+00
 0.000000000000000000e+00
 0.000000000000000000e+00
 0.000000000000000000e+00
 </DataArray>
 <DataArray Name="volume" type="Float32" NumberOfComponents="1" format="ascii">
 2.145395871897309766e-10
 2.005513022232843882e-10
 1.759996469750877719e-10
 1.460942021543037889e-10
 1.157714446119632336e-10
 8.841456647656831682e-11
 6.563547729754379279e-11
 4.770716823130667576e-11
 3.414635677638653007e-11
 2.417187930505001336e-11
 8.828565744687272596e-10
 8.252930753031971586e-10
 7.242600187289295849e-10
 6.011954649172739916e-10
 4.764136183455196691e-10
 3.638367273616948411e-10
 2.700979964097886711e-10
 1.963208174025549158e-10
 1.405164238874350136e-10
 9.947023223669875159e-11
 2.077612614988822712e-09
 1.942149329685462165e-09
 1.704389812522788916e-09
 1.414783916331864304e-09
 1.121136741857252988e-09
 8.562112991204564602e-10
 6.356174047430861216e-10
 4.619987194023143850e-10