<VTKFile type="UnstructuredGrid" byte_order="BigEndian">
<UnstructuredGrid><Piece NumberOfPoints="4991" NumberOfCells="4800">
<Points>
 <DataArray type="Float32" NumberOfComponents="3" format="ascii">
 3.020000085234642029e-02 0.000000000000000000e+00 0.000000000000000000e+00
 3.027995303273200989e-02 0.000000000000000000e+00 0.000000000000000000e+00
 3.036169335246086121e-02 0.000000000000000000e+00 0.000000000000000000e+00
 3.044525347650051117e-02 0.000000000000000000e+00 0.000000000000000000e+00
 3.053067624568939209e-02 0.000000000000000000e+00 0.000000000000000000e+00
 3.061799891293048859e-02 0.000000000000000000e+00 0.000000000000000000e+00
 3.070726059377193451e-02 0.000000000000000000e+00 0.000000000000000000e+00
 3.079850412905216217e-02 0.000000000000000000e+00 0.000000000000000000e+00
 3.089176863431930542e-02 0.000000000000000000e+00 0.000000000000000000e+00
 3.098709508776664734e-02 0.000000000000000000e+00 0.000000000000000000e+00
 3.108453005552291870e-02 0.000000000000000000e+00 0.000000000000000000e+00
 3.118411451578140259e-02 0.000000000000000000e+00 0.000000000000000000e+00
 3.128589317202568054e-02 0.000000000000000000e+00 0.000000000000000000e+00
 3.138991072773933411e-02 0.000000000000000000e+00 0.000000000000000000e+00
 3.149621188640594482e-02 0.000000000000000000e+00 0.000000000000000000e+00
 3.160484507679939270e-02 0.000000000000000000e+00 0.000000000000000000e+00
 3.171585872769355774e-02 0.000000000000000000e+00 0.000000000000000000e+00
 3.182929754257202148e-02 0.000000000000000000e+00 0.000000000000000000e+00
 3.194520995020866394e-02 0.000000000000000000e+00 0.000000000000000000e+00
 3.206364810466766357e-02 0.000000000000000000e+00 0.000000000000000000e+00
 3.218466416001319885e-02 0.000000000000000000e+00 0.000000000000000000e+00
 3.230830654501914978e-02 0.000000000000000000e+00 0.000000000000000000e+00
 3.243462741374969482e-02 0.000000000000000000e+00 0.000000000000000000e+00
 3.256368264555931091e-02 0.000000000000000000e+00 0.000000000000000000e+00
 3.269552066922187805e-02 0.000000000000000000e+00 0.000000000000000000e+00
 3.283020108938217163e-02 0.000000000000000000e+00 0.000000000000000000e+00
 3.296777606010437012e-02 0.000000000000000000e+00 0.000000000000000000e+00
 3.310830146074295044e-02 0.000000000000000000e+00 0.000000000000000000e+00
 3.325183689594268799e-02 0.000000000000000000e+00 0.000000000000000000e+00
 3.339843824505805969e-02 0.000000000000000000e+00 0.000000000000000000e+00
 3.354816511273384094e-02 0.000000000000000000e+00 0.000000000000000000e+00
 3.370107710361480713e-02 0.000000000000000000e+00 0.000000000000000000e+00
 3.385723009705543518e-02 0.000000000000000000e+00 0.000000000000000000e+00
 3.401669114828109741e-02 0.000000000000000000e+00 0.000000000000000000e+00
 3.417951613664627075e-02 0.000000000000000000e+00 0.000000000000000000e+00
 3.434577584266662598e-02 0.000000000000000000e+00 0.000000000000000000e+00
 3.451552614569664001e-02 0.000000000000000000e+00 0.000000000000000000e+00
 3.468883037567138672e-02 0.000000000000000000e+00 0.000000000000000000e+00
 3.486575931310653687e-02 0.000000000000000000e+00 0.000000000000000000e+00
 3.504637628793716431e-02 0.000000000000000000e+00 0.000000000000000000e+00
 3.523074463009834290e-02 0.000000000000000000e+00 0.000000000000000000e+00
 3.541893512010574341e-02 0.000000000000000000e+00 0.000000000000000000e+00
 3.561101481318473816e-02 0.000000000000000000e+00 0.000000000000000000e+00
 3.580705076456069946e-02 0.000000000000000000e+00 0.000000000000000000e+00
 3.600711375474929810e-02 0.000000000000000000e+00 0.000000000000000000e+00
 3.621127083897590637e-02 0.000000000000000000e+00 0.000000000000000000e+00
 3.641959279775619507e-02 0.000000000000000000e+00 0.000000000000000000e+00
 3.663215413689613342e-02 0.000000000000000000e+00 0.000000000000000000e+00
 3.684902191162109375e-02 0.000000000000000000e+00 0.000000000000000000e+00
 3.707027435302734375e-02 0.000000000000000000e+00 0.000000000000000000e+00
 3.729597479104995728e-02 0.000000000000000000e+00 0.000000000000000000e+00
 3.752620518207550049e-02 0.000000000000000000e+00 0.000000000000000000e+00
 3.776103630661964417e-02 0.000000000000000000e+00 0.000000000000000000e+00
 3.800054267048835754e-02 0.000000000000000000e+00 0.000000000000000000e+00
 3.824479505419731140e-02 0.000000000000000000e+00 0.000000000000000000e+00
 3.849387168884277344e-02 0.000000000000000000e+00 0.000000000000000000e+00
 3.874784708023071289e-02 0.000000000000000000e+00 0.000000000000000000e+00
 3.900679945945739746e-02 0.000000000000000000e+00 0.000000000000000000e+00
 3.927079960703849792e-02 0.000000000000000000e+00 0.000000000000000000e+00
 3.953992947936058044e-02 0.000000000000000000e+00 0.000000000000000000e+00
 3.981425613164901733e-02 0.000000000000000000e+00 0.000000000000000000e+00
 4.009386524558067322e-02 0.000000000000000000e+00 0.000000000000000000e+00
 4.037883132696151733e-02 0.000000000000000000e+00 0.000000000000000000e+00
 4.066922515630722046e-02 0.000000000000000000e+00 0.000000000000000000e+00
 4.096512869000434875e-02 0.000000000000000000e+00 0.000000000000000000e+00
 4.126661643385887146e-02 0.000000000000000000e+00 0.000000000000000000e+00
 4.157376289367675781e-02 0.000000000000000000e+00 0.000000000000000000e+00
 4.188664630055427551e-02 0.000000000000000000e+00 0.000000000000000000e+00
 4.220534116029739380e-02 0.000000000000000000e+00 0.000000000000000000e+00
 4.252992197871208191e-02 0.000000000000000000e+00 0.000000000000000000e+00
 4.286046326160430908e-02 0.000000000000000000e+00 0.000000000000000000e+00
 4.319704324007034302e-02 0.000000000000000000e+00 0.000000000000000000e+00
 4.353972896933555603e-02 0.000000000000000000e+00 0.000000000000000000e+00
 4.388859868049621582e-02 0.000000000000000000e+00 0.000000000000000000e+00
 4.424372315406799316e-02 0.000000000000000000e+00 0.000000000000000000e+00
 4.460517317056655884e-02 0.000000000000000000e+00 0.000000000000000000e+00
 4.497301951050758362e-02 0.000000000000000000e+00 0.000000000000000000e+00
 4.534733295440673828e-02 0.000000000000000000e+00 0.000000000000000000e+00
 4.572818055748939514e-02 0.000000000000000000e+00 0.000000000000000000e+00
 4.611562937498092651e-02 0.000000000000000000e+00 0.000000000000000000e+00
 4.650975018739700317e-02 0.000000000000000000e+00 0.000000000000000000e+00
 4.691059887409210205e-02 0.000000000000000000e+00 0.000000000000000000e+00
 4.731824621558189392e-02 0.000000000000000000e+00 0.000000000000000000e+00
 4.773275181651115417e-02 0.000000000000000000e+00 0.000000000000000000e+00
 4.815417528152465820e-02 0.000000000000000000e+00 0.000000000000000000e+00
 4.858257248997688293e-02 0.000000000000000000e+00 0.000000000000000000e+00
 4.901800677180290222e-02 0.000000000000000000e+00 0.000000000000000000e+00
 4.946052283048629761e-02 0.000000000000000000e+00 0.000000000000000000e+00
 4.991018027067184448e-02 0.000000000000000000e+00 0.000000000000000000e+00
 5.036703124642372131e-02 0.000000000000000000e+00 0.000000000000000000e+00
 5.083111301064491272e-02 0.000000000000000000e+00 0.000000000000000000e+00
 5.130248144268989563e-02 0.000000000000000000e+00 0.000000000000000000e+00
 5.178117379546165466e-02 0.000000000000000000e+00 0.000000000000000000e+00
 5.226723477244377136e-02 0.000000000000000000e+00 0.000000000000000000e+00
 5.276069417595863342e-02 0.000000000000000000e+00 0.000000000000000000e+00
 5.326159298419952393e-02 0.000000000000000000e+00 0.000000000000000000e+00
 5.376996099948883057e-02 0.000000000000000000e+00 0.000000000000000000e+00
 5.428582802414894104e-02 0.000000000000000000e+00 0.000000000000000000e+00
 5.480921268463134766e-02 0.000000000000000000e+00 0.000000000000000000e+00
 5.534014478325843811e-02 0.000000000000000000e+00 0.000000000000000000e+00
 5.587863922119140625e-02 0.000000000000000000e+00 0.000000000000000000e+00
 5.642471089959144592e-02 0.000000000000000000e+00 0.000000000000000000e+00
 5.697836726903915405e-02 0.000000000000000000e+00 0.000000000000000000e+00
 5.753961950540542603e-02 0.000000000000000000e+00 0.000000000000000000e+00
 5.810847133398056030e-02 0.000000000000000000e+00 0.000000000000000000e+00
 5.868491902947425842e-02 0.000000000000000000e+00 0.000000000000000000e+00
 5.926895514130592346e-02 0.000000000000000000e+00 0.000000000000000000e+00
 5.986057594418525696e-02 0.000000000000000000e+00 0.000000000000000000e+00
 6.045976281166076660e-02 0.000000000000000000e+00 0.000000000000000000e+00
 6.106650084257125854e-02 0.000000000000000000e+00 0.000000000000000000e+00
 6.168076768517494202e-02 0.000000000000000000e+00 0.000000000000000000e+00
 6.230253353714942932e-02 0.000000000000000000e+00 0.000000000000000000e+00
 6.293176114559173584e-02 0.000000000000000000e+00 0.000000000000000000e+00
 6.356842815876007080e-02 0.000000000000000000e+00 0.000000000000000000e+00
 6.421247124671936035e-02 0.000000000000000000e+00 0.000000000000000000e+00
 6.486386060714721680e-02 0.000000000000000000e+00 0.000000000000000000e+00
 6.552254408597946167e-02 0.000000000000000000e+00 0.000000000000000000e+00
 6.618844717741012573e-02 0.000000000000000000e+00 0.000000000000000000e+00
 6.686152517795562744e-02 0.000000000000000000e+00 0.000000000000000000e+00
 6.754170358180999756e-02 0.000000000000000000e+00 0.000000000000000000e+00
 6.822890788316726685e-02 0.000000000000000000e+00 0.000000000000000000e+00
 6.892306357622146606e-02 0.000000000000000000e+00 0.000000000000000000e+00
 6.962408125400543213e-02 0.000000000000000000e+00 0.000000000000000000e+00
 7.033187896013259888e-02 0.000000000000000000e+00 0.000000000000000000e+00
 7.104635238647460938e-02 0.000000000000000000e+00 0.000000000000000000e+00
 7.176741212606430054e-02 0.000000000000000000e+00 0.000000000000000000e+00
 7.249493896961212158e-02 0.000000000000000000e+00 0.000000000000000000e+00
 7.322883605957031250e-02 0.000000000000000000e+00 0.000000000000000000e+00
[...]
<CellData>
 <DataArray Name="pos.x" type="Float32" NumberOfComponents="1" format="ascii">
 3.023997687408900778e-02
 3.032082309519252075e-02
 3.040347310476909301e-02
 3.048796493583504422e-02
 3.057433732106450142e-02
 3.066262970084529527e-02
 3.075288223119403488e-02
 3.084513579148869325e-02
 3.093943199202216915e-02
 3.103581318136592465e-02
 3.113432245347300814e-02
 3.123500365458567116e-02
 3.133790138984959839e-02
 3.144306102965314237e-02
 3.155052871568003736e-02
 3.166035136659710314e-02
 3.177257668343566599e-02
 3.188725315456329701e-02
 3.200443006026790910e-02
 3.212415747691650669e-02
 3.224648628066201922e-02
 3.237146815064649574e-02
 3.249915557171618313e-02
 3.262960183658880631e-02
 3.276286104742805877e-02
 3.289898811682980678e-02
 3.303803876816727852e-02
 3.318006953523909563e-02
 3.332513776124135935e-02
 3.347330159696459279e-02
 3.362461999820894054e-02
 3.377915272238522781e-02
 3.393696032425048276e-02
 3.409810415072977996e-02
 3.426264633480240185e-02
 3.443064978838370621e-02
 3.460217819420274843e-02
 3.477729599655710047e-02
 3.495606839100312557e-02
 3.513856131282240558e-02
 3.532484142430412921e-02
 3.551497610074991901e-02
 3.570903341517716462e-02
 3.590708212164633872e-02
 3.610919163719042424e-02
 3.631543202226916733e-02
 3.652587395971933215e-02
 3.674058873214863102e-02
 3.695964819769509413e-02
 3.718312476413489914e-02
 3.741109136127946516e-02
 3.764362141157703845e-02
 3.788078879893361228e-02
 3.812266783563619116e-02
 3.836933322735651408e-02
 3.862086003621740399e-02
 3.887732364179940364e-02
 3.913879970011994308e-02
 3.940536410047955351e-02
 3.967709292016777245e-02
 3.995406237696524920e-02
 4.023634877941741073e-02
 4.052402847480958414e-02
 4.081717779486367104e-02
 4.111587299905695991e-02
 4.142019021557979963e-02
 4.173020537988783585e-02
 4.204599417081012619e-02
 4.236763194423852352e-02
 4.269519366431211854e-02
 4.302875383214832539e-02
 4.336838641208064921e-02
 4.371416475540589042e-02
 4.406616152164229139e-02
 4.442444859732163492e-02
 4.478909701229078638e-02
 4.516017685359475370e-02
 4.553775717693829550e-02
 4.592190591573631214e-02
 4.631268978786504120e-02
 4.671017420007991111e-02
 4.711442315021554389e-02
 4.752549912721445308e-02
 4.794346300902871394e-02
 4.836837395854783062e-02
 4.880028931754883809e-02
 4.923926449885909773e-02
 4.968535287677444678e-02
 5.013860567589441264e-02
 5.059907185847878353e-02
 5.106679801047371570e-02
 5.154182822637692202e-02
 5.202420399304956422e-02
 5.251396407271217287e-02
 5.301114438525048045e-02
 5.351577789005614733e-02
 5.402789446759860559e-02
 5.454752080090832789e-02
 5.507468025726542510e-02
 5.560939277024140592e-02
 5.615167472240110286e-02
 5.670153882889065328e-02
 5.725899402216787920e-02
 5.782404533815886649e-02
 5.839669380412485650e-02
 5.897693632848415024e-02
 5.956476559294961171e-02
 6.016016994722664379e-02
 6.076313330657488743e-02
 6.137363505262137531e-02
 6.199164993762548703e-02
 6.261714799260574560e-02
 6.325009443961335243e-02
 6.389044960845115251e-02
 6.453816885824377458e-02
 6.519320250404715689e-02
 6.585549574895761815e-02
 6.652498862193838292e-02
 6.720161592170376119e-02
 6.788530716699731071e-02
 6.857598655351473949e-02
 6.927357291777397341e-02
 6.997797970825057889e-02
 7.068911496398185001e-02
 7.140688130095748654e-02
 7.213117590648607247e-02
 7.286189054180772229e-02
 7.359891155312599242e-02
 7.434211989127421927e-02
 7.509139114016305516e-02
 7.584659555419953625e-02
 7.660759810474737641e-02
 7.737425853579030233e-02
 7.814643142883841154e-02
 7.892396627715882185e-02
 7.970670756934220003e-02
 8.049449488219825866e-02
 8.128716298301734422e-02
 8.208454194102318691e-02
 8.288645724807089388e-02
 8.369272994837587132e-02
 8.450317677718326148e-02
 8.531761030818452163e-02
 8.613583910949355882e-02
 8.695766790794724754e-02
 8.778289776147676915e-02
 8.861132623924042329e-02
 8.944274760924667000e-02
 9.027695303309238306e-02
 9.111373076743278787e-02
 9.195286637186909917e-02
 9.279414292273115150e-02
 9.363734123239647600e-02
 9.448224007367514443e-02
 9.532861640873030451e-02
 9.617624562211542216e-02
 9.702490175735682676e-02
 9.787435775658631654e-02
 9.872438570267927371e-02
 9.957475706334995014e-02
 3.023997687408700938e-02
 3.032082309519121277e-02
 3.040347310477035242e-02
 3.048796493583497136e-02
 3.057433732106430713e-02
 3.066262970084714795e-02
 3.075288223119376080e-02
 3.084513579148679199e-02
 3.093943199202273467e-02
 3.103581318136599057e-02
 3.113432245347251201e-02
 3.123500365458658015e-02
 3.133790138984787060e-02
 3.144306102965633426e-02
 3.155052871567762957e-02
 3.166035136659758192e-02
 3.177257668343771990e-02
 3.188725315456163167e-02
 3.200443006026729847e-02
 3.212415747691631240e-02
 3.224648628066211636e-02
 3.237146815064603778e-02
 3.249915557171587782e-02
 3.262960183659027041e-02
 3.276286104742850980e-02
 3.289898811682976515e-02
 3.303803876816729240e-02
 3.318006953523868624e-02
 3.332513776124101934e-02
 3.347330159696521729e-02
 3.362461999820799685e-02
 3.377915272238531108e-02
 3.393696032424933784e-02
 3.409810415073086937e-02
 3.426264633480235328e-02
 3.443064978838435153e-02
 3.460217819420101371e-02
 3.477729599655580289e-02
 3.495606839100486724e-02
 3.513856131282341866e-02
 3.532484142430416391e-02
 3.551497610075014799e-02
 3.570903341517720625e-02
 3.590708212164610974e-02
 3.610919163718992464e-02
 3.631543202226782813e-02
 3.652587395971997053e-02
 3.674058873214844367e-02
 3.695964819769515658e-02
 3.718312476413593304e-02
 3.741109136127904189e-02
 3.764362141157769071e-02
 3.788078879893443801e-02
 3.812266783563491440e-02
 3.836933322735663204e-02
 3.862086003621582192e-02
 3.887732364180108285e-02
 3.913879970011924225e-02
 3.940536410048018495e-02
 3.967709292016624589e-02
 3.995406237696667862e-02
 4.023634877941815319e-02
 4.052402847480982701e-02
 4.081717779486384451e-02
 4.111587299905716114e-02
 4.142019021558032005e-02
 4.173020537988646195e-02
 4.204599417081116008e-02
 4.236763194423832229e-02
 4.269519366431240998e-02
 4.302875383214779109e-02
 4.336838641208079492e-02
 4.371416475540641083e-02
 4.406616152164370692e-02
 4.442444859732056633e-02
 4.478909701229145252e-02
 4.516017685359513534e-02
 4.553775717693857306e-02
 4.592190591573511171e-02
 4.631268978786504120e-02
 4.671017420008009846e-02
 4.711442315021621696e-02
 4.752549912721316938e-02
 4.794346300902926905e-02
 4.836837395854751837e-02
 4.880028931754918503e-02
 4.923926449885870221e-02
 4.968535287677421086e-02
 5.013860567589464162e-02
 5.059907185847821454e-02
 5.106679801047369488e-02
 5.154182822637624894e-02
 5.202420399304985565e-02
 5.251396407271134714e-02
 5.301114438525112577e-02
 5.351577789005606406e-02
 5.402789446759726638e-02
 5.454752080090993771e-02
 5.507468025726518918e-02
 5.560939277024148225e-02
 5.615167472240171348e-02
 5.670153882888950836e-02
 5.725899402216722001e-02
 5.782404533815949099e-02
 5.839669380412387117e-02
 5.897693632848451106e-02
 5.956476559295177664e-02
 6.016016994722461070e-02
 6.076313330657456824e-02
 6.137363505262213859e-02
 6.199164993762531356e-02
 6.261714799260820197e-02
 6.325009443961182587e-02
 6.389044960845137455e-02
 6.453816885824334437e-02
 6.519320250404796180e-02
 6.585549574895821490e-02
 6.652498862193764739e-02
 6.720161592170234566e-02
 6.788530716699768541e-02
 6.857598655351601624e-02
 6.927357291777373749e-02
 6.997797970825017644e-02
 7.068911496398269656e-02
 7.140688130095598773e-02
 7.213117590648718269e-02
 7.286189054180740310e-02
 7.359891155312790756e-02
 7.434211989127428866e-02
 7.509139114016286087e-02
 7.584659555419966115e-02
 7.660759810474661313e-02
 7.737425853579091295e-02
 7.814643142883796745e-02
 7.892396627716040391e-02
 7.970670756933891099e-02
 8.049449488220086768e-02
 8.128716298301726095e-02
 8.208454194102250689e-02
 8.288645724807042203e-02
 8.369272994837566315e-02
 8.450317677718420517e-02
 8.531761030818538205e-02
 8.613583910949150491e-02
 8.695766790794870471e-02
 8.778289776147681078e-02
 8.861132623923854978e-02
 8.944274760924875167e-02
 9.027695303309124508e-02
 9.111373076743341237e-02
 9.195286637187016776e-02
 9.279414292273212295e-02
 9.363734123239633722e-02
 9.448224007367500565e-02
 9.532861640873244169e-02
 9.617624562211589401e-02
 9.702490175735616063e-02
 9.787435775658573367e-02
 9.872438570267909330e-02
 9.957475706334897869e-02
 3.023997687408537180e-02
 3.032082309519282259e-02
 3.040347310476885362e-02
 3.048796493583767406e-02
 3.057433732106370691e-02
 3.066262970084693631e-02
 3.075288223119407305e-02
 3.084513579148503645e-02
 3.093943199202309202e-02
 3.103581318136578240e-02
 3.113432245347326488e-02
 3.123500365458502931e-02
 3.133790138985032003e-02
 3.144306102965402361e-02
 3.155052871567803202e-02
 3.166035136659724886e-02
 3.177257668343713010e-02
 3.188725315456365783e-02
 3.200443006026750664e-02
 3.212415747691602097e-02
 3.224648628066185269e-02
 3.237146815064523286e-02
 3.249915557171685621e-02
 3.262960183658938917e-02
 3.276286104742820449e-02
 3.289898811683029251e-02
 3.303803876816824303e-02
 3.318006953523823521e-02
 3.332513776124210875e-02
 3.347330159696446095e-02
 3.362461999820828135e-02
 3.377915272238509597e-02
 3.393696032424974723e-02
 3.409810415073211837e-02
 3.426264633480140959e-02
 3.443064978838276252e-02
 3.460217819420118024e-02
 3.477729599655474124e-02
 3.495606839100412477e-02
 3.513856131282377254e-02
 3.532484142430301205e-02
 3.551497610075183414e-02
 3.570903341517685237e-02
 3.590708212164658159e-02
 3.610919163718996627e-02
 3.631543202226806405e-02
 3.652587395971949868e-02
 3.674058873214890164e-02
 3.695964819769419901e-02
 3.718312476413539180e-02
 3.741109136127955537e-02
 3.764362141157745478e-02
 3.788078879893444495e-02
 3.812266783563467154e-02
 3.836933322735678470e-02
 3.862086003621796604e-02
 3.887732364180086775e-02
 3.913879970011855530e-02
 3.940536410047943555e-02
 3.967709292016748102e-02
 3.995406237696699780e-02
 4.023634877941609927e-02
 4.052402847481046538e-02
 4.081717779486383063e-02
 4.111587299905709869e-02
 4.142019021558046576e-02
 4.173020537988696155e-02
 4.204599417081116008e-02
 4.236763194423830148e-02
 4.269519366431266671e-02
 4.302875383214882499e-02
 4.336838641208005940e-02
 4.371416475540548796e-02
 4.406616152164409550e-02
 4.442444859732076062e-02
 4.478909701228999535e-02
 4.516017685359628719e-02
 4.553775717693760161e-02
 4.592190591573512559e-02
 4.631268978786527712e-02
 4.671017420007950172e-02
 4.711442315021669575e-02
 4.752549912721277386e-02
 4.794346300902936620e-02
 4.836837395854823307e-02
 4.880028931754857441e-02
 4.923926449885850098e-02
 4.968535287677491863e-02
 5.013860567589634165e-02
 5.059907185847776351e-02
 5.106679801047461775e-02
 5.154182822637673467e-02
 5.202420399304984178e-02
 5.251396407271283900e-02
 5.301114438524981431e-02
 5.351577789005677876e-02
 5.402789446759821701e-02
 5.454752080090807115e-02
 5.507468025726633409e-02
 5.560939277024067040e-02
 5.615167472240151225e-02
 5.670153882889157615e-02
 5.725899402216737266e-02
 5.782404533815821424e-02
 5.839669380412449567e-02
 5.897693632848455964e-02
 5.956476559295166562e-02
 6.016016994722599848e-02
 6.076313330657511641e-02
 6.137363505262072305e-02
 6.199164993762487641e-02
 6.261714799260689746e-02
 6.325009443961258915e-02
 6.389044960845051413e-02
 6.453816885824378846e-02
 6.519320250404841977e-02
 6.585549574895824265e-02
 6.652498862193677309e-02
 6.720161592170229015e-02
 6.788530716699980871e-02
 6.857598655351332395e-02
 6.927357291777480608e-02
 6.997797970824953806e-02
 7.068911496398168348e-02
 7.140688130095769470e-02
 7.213117590648603084e-02
 7.286189054180758351e-02
 7.359891155312577038e-02
 7.434211989127188780e-02
 7.509139114016451233e-02
 7.584659555419731580e-02
 7.660759810474859766e-02
 7.737425853578951129e-02
 7.814643142883870297e-02
 7.892396627716014024e-02
 7.970670756934172818e-02
 8.049449488219863336e-02
 8.128716298301826015e-02
 8.208454194102166035e-02
 8.288645724806877058e-02
 8.369272994837802238e-02
 8.450317677718263698e-02
 8.531761030818511837e-02
 8.613583910949136613e-02
 8.695766790794864920e-02
 8.778289776147613077e-02
 8.861132623923920204e-02
 8.944274760924891821e-02
 9.027695303308884422e-02
 9.111373076743566057e-02
 9.195286637187062573e-02
 9.279414292273044373e-02
 9.363734123239775275e-02
 9.448224007367587995e-02
 9.532861640872981879e-02
 9.617624562211640749e-02
 9.702490175735473121e-02
 9.787435775658696879e-02
 9.872438570267841329e-02
 9.957475706335094934e-02
 3.023997687408798429e-02
 3.032082309519373159e-02
 3.040347310476687256e-02
 3.048796493583509626e-02
 3.057433732106451876e-02
 3.066262970084674550e-02
 3.075288223119438530e-02
 3.084513579148775303e-02
 3.093943199202362285e-02
 3.103581318136616404e-02
 3.113432245347324753e-02
 3.123500365458509176e-02
 3.133790138984956369e-02
 3.144306102965385014e-02
 3.155052871567948225e-02
 3.166035136659714477e-02
 3.177257668343723418e-02
 3.188725315456160392e-02
 3.200443006026817278e-02
 3.212415747691581974e-02
 3.224648628066206779e-02
 3.237146815064459449e-02
 3.249915557171638436e-02
 3.262960183659042307e-02
 3.276286104742826000e-02
 3.289898811683047986e-02
 3.303803876816771568e-02
 3.318006953523760377e-02
 3.332513776124119281e-02
 3.347330159696507851e-02
 3.362461999820939851e-02
 3.377915272238411759e-02
 3.393696032425115583e-02
 3.409810415073179224e-02
 3.426264633480048671e-02
 3.443064978838480950e-02
 3.460217819420052104e-02
 3.477729599655637882e-02
 3.495606839100292434e-02
 3.513856131282341172e-02
 3.532484142430233898e-02
 3.551497610075157046e-02
 3.570903341517785851e-02
 3.590708212164534646e-02
 3.610919163719097241e-02
 3.631543202226732853e-02
 3.652587395971965828e-02
 3.674058873214902654e-02
 3.695964819769521903e-02
 3.718312476413610651e-02
 3.741109136127911128e-02
 3.764362141157651109e-02
 3.788078879893450740e-02
 3.812266783563539319e-02
 3.836933322735555651e-02
 3.862086003621761909e-02
 3.887732364179949385e-02
 3.913879970011972798e-02
 3.940536410048046251e-02
 3.967709292016772388e-02
 3.995406237696570717e-02
 4.023634877941736215e-02
 4.052402847481079151e-02
 4.081717779486269959e-02
 4.111587299905768850e-02
 4.142019021558070169e-02
 4.173020537988675338e-02
 4.204599417081165968e-02
 4.236763194423905782e-02
 4.269519366431265284e-02
 4.302875383214654209e-02
 4.336838641208181494e-02
 4.371416475540543245e-02
 4.406616152164469918e-02
 4.442444859732035123e-02
 4.478909701228948187e-02
 4.516017685359708517e-02
 4.553775717693732406e-02
 4.592190591573722808e-02
 4.631268978786432650e-02
 4.671017420007950172e-02
 4.711442315021603655e-02
 4.752549912721528574e-02
 4.794346300902791597e-02
 4.836837395854737265e-02
 4.880028931754903238e-02
 4.923926449885872997e-02
 4.968535287677470352e-02
 5.013860567589374650e-02
 5.059907185847755534e-02
 5.106679801047388223e-02
 5.154182822637654732e-02
 5.202420399305042464e-02
 5.251396407271173572e-02
 5.301114438525039024e-02
 5.351577789005694530e-02
 5.402789446759782149e-02
 5.454752080090980587e-02
 5.507468025726477978e-02
 5.560939277024092020e-02
 5.615167472240199797e-02
 5.670153882889039654e-02
 5.725899402216660938e-02
 5.782404533816091347e-02
 5.839669380412361444e-02
 5.897693632848283879e-02
 5.956476559295156153e-02
 6.016016994722534622e-02
 6.076313330657515804e-02
 6.137363505262009855e-02
 6.199164993762613929e-02
 6.261714799260688358e-02
 6.325009443961278344e-02
 6.389044960845059740e-02
 6.453816885824383009e-02
 6.519320250404868344e-02
 6.585549574895825653e-02
 6.652498862193691187e-02
 6.720161592170321996e-02
 6.788530716699878176e-02
 6.857598655351411499e-02
 6.927357291777307136e-02
 6.997797970825089808e-02
 7.068911496398160021e-02
 7.140688130095762531e-02
 7.213117590648650268e-02
 7.286189054180856883e-02
 7.359891155312592304e-02
 7.434211989127308129e-02
 7.509139114016422090e-02
 7.584659555419843990e-02
 7.660759810474732090e-02
 7.737425853579052437e-02
 7.814643142883881399e-02
 7.892396627715884960e-02
 7.970670756934059020e-02
 8.049449488219993787e-02
 8.128716298301663645e-02
 8.208454194102091095e-02
 8.288645724807069959e-02
 8.369272994837692603e-02
 8.450317677718358067e-02
 8.531761030818457714e-02
 8.613583910949290656e-02
 8.695766790795017576e-02
 8.778289776147493728e-02
 8.861132623923802243e-02
 8.944274760925080558e-02
 9.027695303308841401e-02
 9.111373076743542465e-02
 9.195286637187015388e-02
 9.279414292272836207e-02
 9.363734123239754459e-02
 9.448224007367590771e-02
 9.532861640873185882e-02
 9.617624562211497807e-02
 9.702490175735810352e-02
 9.787435775658459569e-02
 9.872438570268142477e-02
 9.957475706335021381e-02
 3.023997687408679427e-02
 3.032082309519003663e-02
 3.040347310477141407e-02
 3.048796493583539116e-02
 3.057433732106506000e-02
 3.066262970084446260e-02
 3.075288223119449285e-02
 3.084513579148729506e-02
 3.093943199202296018e-02
 3.103581318136648323e-02
 3.113432245347231425e-02
 3.123500365458682648e-02
 3.133790138984850898e-02
 3.144306102965344768e-02
 3.155052871567934347e-02
 3.166035136659629129e-02
 3.177257668343741459e-02
 3.188725315456363701e-02
 3.200443006026819359e-02
 3.212415747691532014e-02
 3.224648628066319189e-02
 3.237146815064589900e-02
 3.249915557171668273e-02
 3.262960183658976387e-02
 3.276286104742779509e-02
 3.289898811683081292e-02
 3.303803876816623769e-02
 3.318006953523881114e-02
 3.332513776124131077e-02
 3.347330159696512014e-02
 3.362461999820905156e-02
 3.377915272238465189e-02
 3.393696032425250197e-02
 3.409810415072885015e-02
 3.426264633480239491e-02
 3.443064978838408785e-02
 3.460217819420031288e-02
 3.477729599655707965e-02
 3.495606839100248026e-02
 3.513856131282304396e-02
 3.532484142430444840e-02
 3.551497610074975941e-02
 3.570903341517678992e-02
 3.590708212164715057e-02
 3.610919163718979974e-02
 3.631543202226816119e-02
 3.652587395971995665e-02
 3.674058873214818000e-02
 3.695964819769370635e-02
 3.718312476413605794e-02
 3.741109136127886148e-02
 3.764362141157768377e-02
 3.788078879893402168e-02
 3.812266783563526829e-02
 3.836933322735669449e-02
 3.862086003621718888e-02
 3.887732364179950079e-02
 3.913879970011838877e-02
 3.940536410047981025e-02
 3.967709292016641937e-02
 3.995406237696488838e-02
 4.023634877941595356e-02
 4.052402847481113846e-02
 4.081717779486453146e-02
 4.111587299905777176e-02
 4.142019021558048658e-02
 4.173020537988698930e-02
 4.204599417081054946e-02
 4.236763194423893292e-02
 4.269519366431193813e-02
 4.302875383214761068e-02
 4.336838641208173861e-02
 4.371416475540530755e-02
 4.406616152164366529e-02
 4.442444859732052470e-02
 4.478909701228940554e-02
 4.516017685359612760e-02
 4.553775717693825387e-02
 4.592190591573609010e-02
 4.631268978786505508e-02
 4.671017420007951559e-02
 4.711442315021586308e-02
 4.752549912721417552e-02
 4.794346300902923436e-02
 4.836837395854662325e-02
 4.880028931754844257e-02
 4.923926449885981244e-02
 4.968535287677530721e-02
 5.013860567589458611e-02
 5.059907185847804800e-02
 5.106679801047328549e-02
 5.154182822637792816e-02
 5.202420399304979320e-02
 5.251396407271214511e-02
 5.301114438525038330e-02
 5.351577789005730612e-02
 5.402789446759700270e-02
 5.454752080090950056e-02
 5.507468025726492550e-02
 5.560939277023994182e-02
 5.615167472240265023e-02
 5.670153882888920999e-02
 5.725899402216774042e-02
 5.782404533815888037e-02
 5.839669380412425281e-02
 5.897693632848489270e-02
 5.956476559295114520e-02
 6.016016994722515887e-02
 6.076313330657439477e-02
 6.137363505262158347e-02
 6.199164993762520948e-02
 6.261714799260777176e-02
 6.325009443961029931e-02
 6.389044960845279009e-02
 6.453816885824316396e-02
 6.519320250404844752e-02
 6.585549574895813163e-02
 6.652498862193774454e-02
 6.720161592170145748e-02
 6.788530716699769929e-02
 6.857598655351594685e-02
 6.927357291777362647e-02
 6.997797970824964908e-02
 7.068911496398265493e-02
 7.140688130095826369e-02