<VTKFile type="UnstructuredGrid" byte_order="BigEndian">
<UnstructuredGrid><Piece NumberOfPoints="217" NumberOfCells="180">
<Points>
 <DataArray type="Float32" NumberOfComponents="3" format="ascii">
 2.999999932944774628e-02 0.000000000000000000e+00 0.000000000000000000e+00
 3.003333322703838348e-02 0.000000000000000000e+00 0.000000000000000000e+00
 3.006666712462902069e-02 0.000000000000000000e+00 0.000000000000000000e+00
 3.009999915957450867e-02 0.000000000000000000e+00 0.000000000000000000e+00
 3.013333305716514587e-02 0.000000000000000000e+00 0.000000000000000000e+00
 3.016666695475578308e-02 0.000000000000000000e+00 0.000000000000000000e+00
 3.020000085234642029e-02 0.000000000000000000e+00 0.000000000000000000e+00
 2.999999932944774628e-02 1.282335579162463546e-04 0.000000000000000000e+00
 3.003333322703838348e-02 1.282335579162463546e-04 0.000000000000000000e+00
 3.006666712462902069e-02 1.282335579162463546e-04 0.000000000000000000e+00
 3.009999915957450867e-02 1.282335579162463546e-04 0.000000000000000000e+00
 3.013333305716514587e-02 1.282335579162463546e-04 0.000000000000000000e+00
 3.016666695475578308e-02 1.282335579162463546e-04 0.000000000000000000e+00
 3.020000085234642029e-02 1.282335579162463546e-04 0.000000000000000000e+00
 2.999999932944774628e-02 2.724006481003016233e-04 0.000000000000000000e+00
 3.003333322703838348e-02 2.724006481003016233e-04 0.000000000000000000e+00
 3.006666712462902069e-02 2.724006481003016233e-04 0.000000000000000000e+00
 3.009999915957450867e-02 2.724006481003016233e-04 0.000000000000000000e+00
 3.013333305716514587e-02 2.724006481003016233e-04 0.000000000000000000e+00
 3.016666695475578308e-02 2.724006481003016233e-04 0.000000000000000000e+00
 3.020000085234642029e-02 2.724006481003016233e-04 0.000000000000000000e+00
 2.999999932944774628e-02 4.343430919107049704e-04 0.000000000000000000e+00
 3.003333322703838348e-02 4.343430919107049704e-04 0.000000000000000000e+00
 3.006666712462902069e-02 4.343430919107049704e-04 0.000000000000000000e+00
 3.009999915957450867e-02 4.343430919107049704e-04 0.000000000000000000e+00
 3.013333305716514587e-02 4.343430919107049704e-04 0.000000000000000000e+00
 3.016666695475578308e-02 4.343430919107049704e-04 0.000000000000000000e+00
 3.020000085234642029e-02 4.343430919107049704e-04 0.000000000000000000e+00
 2.999999932944774628e-02 6.160786142572760582e-04 0.000000000000000000e+00
 3.003333322703838348e-02 6.160786142572760582e-04 0.000000000000000000e+00
 3.006666712462902069e-02 6.160786142572760582e-04 0.000000000000000000e+00
 3.009999915957450867e-02 6.160786142572760582e-04 0.000000000000000000e+00
 3.013333305716514587e-02 6.160786142572760582e-04 0.000000000000000000e+00
 3.016666695475578308e-02 6.160786142572760582e-04 0.000000000000000000e+00
 3.020000085234642029e-02 6.160786142572760582e-04 0.000000000000000000e+00
 2.999999932944774628e-02 8.198075811378657818e-04 0.000000000000000000e+00
 3.003333322703838348e-02 8.198075811378657818e-04 0.000000000000000000e+00
 3.006666712462902069e-02 8.198075811378657818e-04 0.000000000000000000e+00
 3.009999915957450867e-02 8.198075811378657818e-04 0.000000000000000000e+00
 3.013333305716514587e-02 8.198075811378657818e-04 0.000000000000000000e+00
 3.016666695475578308e-02 8.198075811378657818e-04 0.000000000000000000e+00
 3.020000085234642029e-02 8.198075811378657818e-04 0.000000000000000000e+00
 2.999999932944774628e-02 1.047916943207383156e-03 0.000000000000000000e+00
 3.003333322703838348e-02 1.047916943207383156e-03 0.000000000000000000e+00
 3.006666712462902069e-02 1.047916943207383156e-03 0.000000000000000000e+00
 3.009999915957450867e-02 1.047916943207383156e-03 0.000000000000000000e+00
 3.013333305716514587e-02 1.047916943207383156e-03 0.000000000000000000e+00
 3.016666695475578308e-02 1.047916943207383156e-03 0.000000000000000000e+00
 3.020000085234642029e-02 1.047916943207383156e-03 0.000000000000000000e+00
 2.999999932944774628e-02 1.302980585023760796e-03 0.000000000000000000e+00
 3.003333322703838348e-02 1.302980585023760796e-03 0.000000000000000000e+00
 3.006666712462902069e-02 1.302980585023760796e-03 0.000000000000000000e+00
 3.009999915957450867e-02 1.302980585023760796e-03 0.000000000000000000e+00
 3.013333305716514587e-02 1.302980585023760796e-03 0.000000000000000000e+00
 3.016666695475578308e-02 1.302980585023760796e-03 0.000000000000000000e+00
 3.020000085234642029e-02 1.302980585023760796e-03 0.000000000000000000e+00
 2.999999932944774628e-02 1.587754231877624989e-03 0.000000000000000000e+00
 3.003333322703838348e-02 1.587754231877624989e-03 0.000000000000000000e+00
 3.006666712462902069e-02 1.587754231877624989e-03 0.000000000000000000e+00
 3.009999915957450867e-02 1.587754231877624989e-03 0.000000000000000000e+00
 3.013333305716514587e-02 1.587754231877624989e-03 0.000000000000000000e+00
 3.016666695475578308e-02 1.587754231877624989e-03 0.000000000000000000e+00
 3.020000085234642029e-02 1.587754231877624989e-03 0.000000000000000000e+00
 2.999999932944774628e-02 1.905164215713739395e-03 0.000000000000000000e+00
 3.003333322703838348e-02 1.905164215713739395e-03 0.000000000000000000e+00
 3.006666712462902069e-02 1.905164215713739395e-03 0.000000000000000000e+00
 3.009999915957450867e-02 1.905164215713739395e-03 0.000000000000000000e+00
 3.013333305716514587e-02 1.905164215713739395e-03 0.000000000000000000e+00
 3.016666695475578308e-02 1.905164215713739395e-03 0.000000000000000000e+00
 3.020000085234642029e-02 1.905164215713739395e-03 0.000000000000000000e+00
 2.999999932944774628e-02 2.258288674056529999e-03 0.000000000000000000e+00
 3.003333322703838348e-02 2.258288674056529999e-03 0.000000000000000000e+00
 3.006666712462902069e-02 2.258288674056529999e-03 0.000000000000000000e+00
 3.009999915957450867e-02 2.258288674056529999e-03 0.000000000000000000e+00
 3.013333305716514587e-02 2.258288674056529999e-03 0.000000000000000000e+00
 3.016666695475578308e-02 2.258288674056529999e-03 0.000000000000000000e+00
 3.020000085234642029e-02 2.258288674056529999e-03 0.000000000000000000e+00
 2.999999932944774628e-02 2.650327980518341064e-03 0.000000000000000000e+00
 3.003333322703838348e-02 2.650327980518341064e-03 0.000000000000000000e+00
 3.006666712462902069e-02 2.650327980518341064e-03 0.000000000000000000e+00
 3.009999915957450867e-02 2.650327980518341064e-03 0.000000000000000000e+00
 3.013333305716514587e-02 2.650327980518341064e-03 0.000000000000000000e+00
 3.016666695475578308e-02 2.650327980518341064e-03 0.000000000000000000e+00
 3.020000085234642029e-02 2.650327980518341064e-03 0.000000000000000000e+00
 2.999999932944774628e-02 3.084564348682761192e-03 0.000000000000000000e+00
 3.003333322703838348e-02 3.084564348682761192e-03 0.000000000000000000e+00
 3.006666712462902069e-02 3.084564348682761192e-03 0.000000000000000000e+00
 3.009999915957450867e-02 3.084564348682761192e-03 0.000000000000000000e+00
 3.013333305716514587e-02 3.084564348682761192e-03 0.000000000000000000e+00
 3.016666695475578308e-02 3.084564348682761192e-03 0.000000000000000000e+00
 3.020000085234642029e-02 3.084564348682761192e-03 0.000000000000000000e+00
 2.999999932944774628e-02 3.564308630302548409e-03 0.000000000000000000e+00
 3.003333322703838348e-02 3.564308630302548409e-03 0.000000000000000000e+00
 3.006666712462902069e-02 3.564308630302548409e-03 0.000000000000000000e+00
 3.009999915957450867e-02 3.564308630302548409e-03 0.000000000000000000e+00
 3.013333305716514587e-02 3.564308630302548409e-03 0.000000000000000000e+00
 3.016666695475578308e-02 3.564308630302548409e-03 0.000000000000000000e+00
 3.020000085234642029e-02 3.564308630302548409e-03 0.000000000000000000e+00
 2.999999932944774628e-02 4.092831630259752274e-03 0.000000000000000000e+00
 3.003333322703838348e-02 4.092831630259752274e-03 0.000000000000000000e+00
 3.006666712462902069e-02 4.092831630259752274e-03 0.000000000000000000e+00
 3.009999915957450867e-02 4.092831630259752274e-03 0.000000000000000000e+00
 3.013333305716514587e-02 4.092831630259752274e-03 0.000000000000000000e+00
 3.016666695475578308e-02 4.092831630259752274e-03 0.000000000000000000e+00
 3.020000085234642029e-02 4.092831630259752274e-03 0.000000000000000000e+00
 2.999999932944774628e-02 4.673280287533998489e-03 0.000000000000000000e+00
 3.003333322703838348e-02 4.673280287533998489e-03 0.000000000000000000e+00
 3.006666712462902069e-02 4.673280287533998489e-03 0.000000000000000000e+00
 3.009999915957450867e-02 4.673280287533998489e-03 0.000000000000000000e+00
 3.013333305716514587e-02 4.673280287533998489e-03 0.000000000000000000e+00
 3.016666695475578308e-02 4.673280287533998489e-03 0.000000000000000000e+00
 3.020000085234642029e-02 4.673280287533998489e-03 0.000000000000000000e+00
 2.999999932944774628e-02 5.308576859533786774e-03 0.000000000000000000e+00
 3.003333322703838348e-02 5.308576859533786774e-03 0.000000000000000000e+00
 3.006666712462902069e-02 5.308576859533786774e-03 0.000000000000000000e+00
 3.009999915957450867e-02 5.308576859533786774e-03 0.000000000000000000e+00
 3.013333305716514587e-02 5.308576859533786774e-03 0.000000000000000000e+00
 3.016666695475578308e-02 5.308576859533786774e-03 0.000000000000000000e+00
 3.020000085234642029e-02 5.308576859533786774e-03 0.000000000000000000e+00
 2.999999932944774628e-02 6.001302972435951233e-03 0.000000000000000000e+00
 3.003333322703838348e-02 6.001302972435951233e-03 0.000000000000000000e+00
 3.006666712462902069e-02 6.001302972435951233e-03 0.000000000000000000e+00
 3.009999915957450867e-02 6.001302972435951233e-03 0.000000000000000000e+00
 3.013333305716514587e-02 6.001302972435951233e-03 0.000000000000000000e+00
 3.016666695475578308e-02 6.001302972435951233e-03 0.000000000000000000e+00
 3.020000085234642029e-02 6.001302972435951233e-03 0.000000000000000000e+00
 2.999999932944774628e-02 6.753570865839719772e-03 0.000000000000000000e+00
 3.003333322703838348e-02 6.753570865839719772e-03 0.000000000000000000e+00
[...]
<CellData>
 <DataArray Name="pos.x" type="Float32" NumberOfComponents="1" format="ascii">
 3.001666666666666719e-02
 3.005000000000000032e-02
 3.008333333333333345e-02
 3.011666666666666659e-02
 3.014999999999999625e-02
 3.018333333333332938e-02
 3.001666666666667066e-02
 3.005000000000000032e-02
 3.008333333333333345e-02
 3.011666666666666659e-02
 3.014999999999999625e-02
 3.018333333333332938e-02
 3.001666666666667066e-02
 3.005000000000000032e-02
 3.008333333333333345e-02
 3.011666666666667005e-02
 3.014999999999999972e-02
 3.018333333333333285e-02
 3.001666666666667066e-02
 3.005000000000000032e-02
 3.008333333333333345e-02
 3.011666666666667005e-02
 3.014999999999999972e-02
 3.018333333333333285e-02
 3.001666666666666719e-02
 3.005000000000000032e-02
 3.008333333333333692e-02
 3.011666666666666659e-02
 3.014999999999999972e-02
 3.018333333333332938e-02
 3.001666666666666719e-02
 3.005000000000000032e-02
 3.008333333333333345e-02
 3.011666666666667005e-02
 3.014999999999999972e-02
 3.018333333333332938e-02
 3.001666666666667066e-02
 3.005000000000000379e-02
 3.008333333333332998e-02
 3.011666666666666659e-02
 3.014999999999999972e-02
 3.018333333333333285e-02
 3.001666666666667066e-02
 3.005000000000000032e-02
 3.008333333333334039e-02
 3.011666666666666659e-02
 3.015000000000000319e-02
 3.018333333333333632e-02
 3.001666666666666719e-02
 3.005000000000000032e-02
 3.008333333333332998e-02
 3.011666666666666659e-02
 3.014999999999999972e-02
 3.018333333333332938e-02
 3.001666666666666372e-02
 3.005000000000000032e-02
 3.008333333333332998e-02
 3.011666666666666312e-02
 3.014999999999999625e-02
 3.018333333333332938e-02
 3.001666666666666719e-02
 3.004999999999999685e-02
 3.008333333333333692e-02
 3.011666666666667352e-02
 3.014999999999999972e-02
 3.018333333333333285e-02
 3.001666666666667066e-02
 3.005000000000000032e-02
 3.008333333333332998e-02
 3.011666666666667005e-02
 3.014999999999999972e-02
 3.018333333333332938e-02
 3.001666666666666719e-02
 3.005000000000000032e-02
 3.008333333333333345e-02
 3.011666666666666659e-02
 3.014999999999999972e-02
 3.018333333333333285e-02
 3.001666666666666719e-02
 3.005000000000000032e-02
 3.008333333333333345e-02
 3.011666666666666659e-02
 3.014999999999999972e-02
 3.018333333333333285e-02
 3.001666666666666719e-02
 3.005000000000000032e-02
 3.008333333333332998e-02
 3.011666666666666659e-02
 3.014999999999999625e-02
 3.018333333333332938e-02
 3.001666666666667066e-02
 3.005000000000000032e-02
 3.008333333333333345e-02
 3.011666666666666659e-02
 3.014999999999999625e-02
 3.018333333333332938e-02
 3.001666666666667066e-02
 3.005000000000000032e-02
 3.008333333333333345e-02
 3.011666666666666659e-02
 3.014999999999999972e-02
 3.018333333333333285e-02
 3.001666666666667066e-02
 3.005000000000000032e-02
 3.008333333333332998e-02
 3.011666666666666659e-02
 3.014999999999999972e-02
 3.018333333333333285e-02
 3.001666666666666719e-02
 3.005000000000000379e-02
 3.008333333333333692e-02
 3.011666666666666659e-02
 3.014999999999999972e-02
 3.018333333333333285e-02
 3.001666666666667066e-02
 3.005000000000000032e-02
 3.008333333333333345e-02
 3.011666666666667005e-02
 3.014999999999999972e-02
 3.018333333333333285e-02
 3.001666666666667066e-02
 3.005000000000000032e-02
 3.008333333333333692e-02
 3.011666666666666659e-02
 3.014999999999999972e-02
 3.018333333333333285e-02
 3.001666666666666719e-02
 3.005000000000000032e-02
 3.008333333333333345e-02
 3.011666666666666659e-02
 3.014999999999999972e-02
 3.018333333333332938e-02
 3.001666666666666719e-02
 3.005000000000000032e-02
 3.008333333333332998e-02
 3.011666666666666312e-02
 3.014999999999999972e-02
 3.018333333333333285e-02
 3.001666666666666719e-02
 3.004999999999999338e-02
 3.008333333333332651e-02
 3.011666666666666312e-02
 3.014999999999999972e-02
 3.018333333333333285e-02
 3.001666666666666719e-02
 3.005000000000000032e-02
 3.008333333333332998e-02
 3.011666666666666659e-02
 3.014999999999999972e-02
 3.018333333333333285e-02
 3.001666666666666719e-02
 3.005000000000000032e-02
 3.008333333333332998e-02
 3.011666666666666659e-02
 3.014999999999999972e-02
 3.018333333333332938e-02
 3.001666666666666719e-02
 3.005000000000000379e-02
 3.008333333333332998e-02
 3.011666666666666312e-02
 3.014999999999999625e-02
 3.018333333333332938e-02
 3.001666666666667066e-02
 3.005000000000000379e-02
 3.008333333333332998e-02
 3.011666666666666312e-02
 3.014999999999999625e-02
 3.018333333333332938e-02
 3.001666666666667066e-02
 3.005000000000000379e-02
 3.008333333333332998e-02
 3.011666666666666659e-02
 3.014999999999999972e-02
 3.018333333333333285e-02
 3.001666666666667066e-02
 3.005000000000000032e-02
 3.008333333333333692e-02
 3.011666666666666659e-02
 3.014999999999999625e-02
 3.018333333333332938e-02
 </DataArray>
 <DataArray Name="pos.y" type="Float32" NumberOfComponents="1" format="ascii">
 6.411677893445211652e-05
 6.411677893445211652e-05
 6.411677893445211652e-05
 6.411677893445211652e-05
 6.411677893445211652e-05
 6.411677893445211652e-05
 2.003170990051250482e-04
 2.003170990051251024e-04
 2.003170990051250753e-04
 2.003170990051250482e-04
 2.003170990051250482e-04
 2.003170990051250482e-04
 3.533718597338719866e-04
 3.533718597338720408e-04
 3.533718597338720408e-04
 3.533718597338719866e-04
 3.533718597338719866e-04
 3.533718597338719866e-04
 5.252108385711750857e-04
 5.252108385711750857e-04
 5.252108385711750857e-04
 5.252108385711750857e-04
 5.252108385711750857e-04
 5.252108385711750857e-04
 7.179430794895025119e-04
 7.179430794895026204e-04
 7.179430794895025119e-04
 7.179430794895025119e-04
 7.179430794895024035e-04
 7.179430794895024035e-04
 9.338622597884616147e-04
 9.338622597884617231e-04
 9.338622597884617231e-04
 9.338622597884615063e-04
 9.338622597884615063e-04
 9.338622597884615063e-04
 1.175448770472211583e-03
 1.175448770472211800e-03
 1.175448770472212016e-03
 1.175448770472211583e-03
 1.175448770472211583e-03
 1.175448770472211583e-03
 1.445367388300478062e-03
 1.445367388300478062e-03
 1.445367388300478279e-03
 1.445367388300478062e-03
 1.445367388300478062e-03
 1.445367388300478062e-03
 1.746459228007582985e-03
 1.746459228007583202e-03
 1.746459228007582985e-03
 1.746459228007582985e-03
 1.746459228007583202e-03
 1.746459228007582985e-03
 2.081726482396404829e-03
 2.081726482396404829e-03
 2.081726482396404829e-03
 2.081726482396404395e-03
 2.081726482396404829e-03
 2.081726482396404829e-03
 2.454308306133464596e-03
 2.454308306133464596e-03
 2.454308306133464596e-03
 2.454308306133464596e-03
 2.454308306133464596e-03
 2.454308306133464596e-03
 2.867446103679954002e-03
 2.867446103679954436e-03
 2.867446103679953569e-03
 2.867446103679954002e-03
 2.867446103679953569e-03
 2.867446103679953569e-03
 3.324436478573440917e-03
 3.324436478573441350e-03
 3.324436478573440917e-03
 3.324436478573440483e-03
 3.324436478573440483e-03
 3.324436478573440483e-03
 3.828570233627395531e-03
 3.828570233627395531e-03
 3.828570233627395097e-03
 3.828570233627395097e-03
 3.828570233627395097e-03
 3.828570233627395097e-03
 4.383056128676713140e-03
 4.383056128676713140e-03
 4.383056128676712272e-03
 4.383056128676712272e-03
 4.383056128676712272e-03
 4.383056128676712272e-03
 4.990928654849156182e-03
 4.990928654849157049e-03
 4.990928654849156182e-03
 4.990928654849156182e-03
 4.990928654849156182e-03
 4.990928654849156182e-03
 5.654939916767823434e-03
 5.654939916767824301e-03
 5.654939916767824301e-03
 5.654939916767823434e-03
 5.654939916767822566e-03
 5.654939916767824301e-03
 6.377436855012629489e-03
 6.377436855012629489e-03
 6.377436855012630357e-03
 6.377436855012629489e-03
 6.377436855012629489e-03
 6.377436855012629489e-03
 7.160226489051593063e-03
 7.160226489051594798e-03
 7.160226489051594798e-03
 7.160226489051594798e-03
 7.160226489051594798e-03
 7.160226489051594798e-03
 8.004433568854859085e-03
 8.004433568854859085e-03
 8.004433568854859085e-03
 8.004433568854859085e-03
 8.004433568854859085e-03
 8.004433568854859085e-03
 8.910356885004666258e-03
 8.910356885004667993e-03
 8.910356885004667993e-03
 8.910356885004667993e-03
 8.910356885004667993e-03
 8.910356885004667993e-03
 9.877332326904767965e-03
 9.877332326904769699e-03
 9.877332326904769699e-03
 9.877332326904767965e-03
 9.877332326904769699e-03
 9.877332326904767965e-03
 1.090361235368756364e-02
 1.090361235368756537e-02
 1.090361235368756537e-02
 1.090361235368756364e-02
 1.090361235368756364e-02
 1.090361235368756364e-02
 1.198627255925871840e-02
 1.198627255925871840e-02
 1.198627255925871840e-02
 1.198627255925871840e-02
 1.198627255925871840e-02
 1.198627255925871840e-02
 1.312115616451829322e-02
 1.312115616451829322e-02
 1.312115616451829322e-02
 1.312115616451829322e-02
 1.312115616451829322e-02
 1.312115616451829322e-02
 1.430286629075654820e-02
 1.430286629075654820e-02
 1.430286629075654993e-02
 1.430286629075654993e-02
 1.430286629075654820e-02
 1.430286629075654820e-02
 1.552481360209726630e-02
 1.552481360209726977e-02
 1.552481360209726977e-02
 1.552481360209726630e-02
 1.552481360209726630e-02
 1.552481360209726803e-02
 1.677932336939600561e-02
 1.677932336939600907e-02
 1.677932336939600561e-02
 1.677932336939600214e-02
 1.677932336939600561e-02
 1.677932336939600561e-02
 1.805780143940214147e-02
 1.805780143940214841e-02
 1.805780143940214841e-02
 1.805780143940214147e-02
 1.805780143940214147e-02
 1.805780143940214147e-02
 1.935095345014891527e-02
 1.935095345014891874e-02
 1.935095345014891874e-02
 1.935095345014891527e-02
 1.935095345014891527e-02
 1.935095345014891527e-02
 </DataArray>
 <DataArray Name="pos.z" type="Float32" NumberOfComponents="1" format="ascii">
 0.000000000000000000e+00
 0.000000000000000000e+00
 0.000000000000000000e+00
 0.000000000000000000e+00
 0.000000000000000000e+00
 0.000000000000000000e+00
 0.000000000000000000e+00
 0.000000000000000000e+00
 0.000000000000000000e+00
 0.000000000000000000e+00
 0.000000000000000000e+00
 0.000000000000000000e+00
 0.000000000000000000e+00
 0.000000000000000000e+00
 0.000000000000000000e+00
 0.000000000000000000e+00
 0.000000000000000000e+00
 0.000000000000000000e+00
 0.000000000000000000e+00
 0.000000000000000000e+00
 0.000000000000000000e+00
 0.000000000000000000e+00
 0.000000000000000000e+00
 0.000000000000000000e+00
 0.000000000000000000e+00
 0.000000000000000000e+00
 0.000000000000000000e+00
 0.000000000000000000e+00
 0.000000000000000000e+00
 0.000000000000000000e+00
 0.000000000000000000e+00
 0.000000000000000000e+00
 0.000000000000000000e+00
 0.000000000000000000e+00
 0.000000000000000000e+00
 0.000000000000000000e+00
 0.000000000000000000e+00
 0.000000000000000000e+00
 0.000000000000000000e+00
 0.000000000000000000e+00
 0.000000000000000000e+00
 0.000000000000000000e+00
 0.000000000000000000e+00
 0.000000000000000000e+00
 0.000000000000000000e+00
 0.000000000000000000e+00
 0.000000000000000000e+00
 0.000000000000000000e+00
 0.000000000000000000e+00
 0.000000000000000000e+00
 0.000000000000000000e+00
 0.000000000000000000e+00
 0.000000000000000000e+00
 0.000000000000000000e+00
 0.000000000000000000e+00
 0.000000000000000000e+00
 0.000000000000000000e+00
 0.000000000000000000e+00
 0.000000000000000000e+00
 0.000000000000000000e+00
 0.000000000000000000e+00
 0.000000000000000000e+00
 0.000000000000000000e+00
 0.000000000000000000e+00
 0.000000000000000000e+00
 0.000000000000000000e+00
 0.000000000000000000e+00
 0.000000000000000000e+00
 0.000000000000000000e+00
 0.000000000000000000e+00
 0.000000000000000000e+00
 0.000000000000000000e+00
 0.000000000000000000e+00
 0.000000000000000000e+00
 0.000000000000000000e+00
 0.000000000000000000e+00
 0.000000000000000000e+00
 0.000000000000000000e+00
 0.000000000000000000e+00
 0.000000000000000000e+00
 0.000000000000000000e+00
 0.000000000000000000e+00
 0.000000000000000000e+00
 0.000000000000000000e+00
 0.000000000000000000e+00
 0.000000000000000000e+00
 0.000000000000000000e+00
 0.000000000000000000e+00
 0.000000000000000000e+00
 0.000000000000000000e+00
 0.000000000000000000e+00
 0.000000000000000000e+00
 0.000000000000000000e+00
 0.000000000000000000e+00
 0.000000000000000000e+00
 0.000000000000000000e+00
 0.000000000000000000e+00
 0.000000000000000000e+00
 0.000000000000000000e+00
 0.000000000000000000e+00
 0.000000000000000000e+00
 0.000000000000000000e+00
 0.000000000000000000e+00
 0.000000000000000000e+00
 0.000000000000000000e+00
 0.000000000000000000e+00
 0.000000000000000000e+00
 0.000000000000000000e+00
 0.000000000000000000e+00
 0.000000000000000000e+00
 0.000000000000000000e+00
 0.000000000000000000e+00
 0.000000000000000000e+00
 0.000000000000000000e+00
 0.000000000000000000e+00
 0.000000000000000000e+00
 0.000000000000000000e+00
 0.000000000000000000e+00
 0.000000000000000000e+00
 0.000000000000000000e+00
 0.000000000000000000e+00
 0.000000000000000000e+00
 0.000000000000000000e+00
 0.000000000000000000e+00
 0.000000000000000000e+00
 0.000000000000000000e+00
 0.000000000000000000e+00
 0.000000000000000000e+00
 0.000000000000000000e+00
 0.000000000000000000e+00
 0.000000000000000000e+00
 0.000000000000000000e+00
 0.000000000000000000e+00
 0.000000000000000000e+00
 0.000000000000000000e+00
 0.000000000000000000e+00
 0.000000000000000000e+00
 0.000000000000000000e+00
 0.000000000000000000e+00
 0.000000000000000000e+00
 0.000000000000000000e+00
 0.000000000000000000e+00
 0.000000000000000000e+00
 0.000000000000000000e+00
 0.000000000000000000e+00
 0.000000000000000000e+00
 0.000000000000000000e+00
 0.000000000000000000e+00
 0.000000000000000000e+00
 0.000000000000000000e+00
 0.000000000000000000e+00
 0.000000000000000000e+00
 0.000000000000000000e+00
 0.000000000000000000e+00
 0.000000000000000000e+00
 0.000000000000000000e+00
 0.000000000000000000e+00
 0.000000000000000000e+00
 0.000000000000000000e+00
 0.000000000000000000e+00
 0.000000000000000000e+00
 0.000000000000000000e+00
 0.000000000000000000e+00
 0.000000000000000000e+00
 0.000000000000000000e+00
 0.000000000000000000e+00
 0.000000000000000000e+00
 0.000000000000000000e+00
 0.000000000000000000e+00
 0.000000000000000000e+00
 0.000000000000000000e+00
 0.000000000000000000e+00
 0.000000000000000000e+00
 0.000000000000000000e+00
 0.000000000000000000e+00
 0.000000000000000000e+00
 0.000000000000000000e+00
 0.000000000000000000e+00
 0.000000000000000000e+00
 0.000000000000000000e+00
 </DataArray>
 <DataArray Name="volume" type="Float32" NumberOfComponents="1" format="ascii">
 0.000000000000000000e+00
 0.000000000000000000e+00
 0.000000000000000000e+00
 0.000000000000000000e+00
 0.000000000000000000e+00
 0.000000000000000000e+00
 0.000000000000000000e+00
 0.000000000000000000e+00
 0.000000000000000000e+00
 0.000000000000000000e+00
 0.000000000000000000e+00
 0.000000000000000000e+00
 0.000000000000000000e+00
 0.000000000000000000e+00
 0.000000000000000000e+00
 0.000000000000000000e+00
 0.000000000000000000e+00
 0.000000000000000000e+00
 0.000000000000000000e+00
 0.000000000000000000e+00
 0.000000000000000000e+00
 0.000000000000000000e+00
 0.000000000000000000e+00
 0.000000000000000000e+00
 0.000000000000000000e+00
 0.000000000000000000e+00
 0.000000000000000000e+00
 0.000000000000000000e+00
 0.000000000000000000e+00
 0.000000000000000000e+00
 0.000000000000000000e+00
 0.000000000000000000e+00
 0.000000000000000000e+00
 0.000000000000000000e+00
 0.000000000000000000e+00
 0.000000000000000000e+00
 0.000000000000000000e+00
 0.000000000000000000e+00
 0.000000000000000000e+00
 0.000000000000000000e+00
 0.000000000000000000e+00
 0.000000000000000000e+00
 0.000000000000000000e+00
 0.000000000000000000e+00
 0.000000000000000000e+00
 0.000000000000000000e+00
 0.000000000000000000e+00
 0.000000000000000000e+00
 0.000000000000000000e+00
 0.000000000000000000e+00
 0.000000000000000000e+00
 0.000000000000000000e+00
 0.000000000000000000e+00
 0.000000000000000000e+00
 0.000000000000000000e+00
 0.000000000000000000e+00
 0.000000000000000000e+00
 0.000000000000000000e+00
 0.000000000000000000e+00
 0.000000000000000000e+00
 0.000000000000000000e+00
 0.000000000000000000e+00
 0.000000000000000000e+00
 0.000000000000000000e+00
 0.000000000000000000e+00
 0.000000000000000000e+00
 0.000000000000000000e+00
 0.000000000000000000e+00
 0.000000000000000000e+00
 0.000000000000000000e+00
 0.000000000000000000e+00
 0.000000000000000000e+00
 0.000000000000000000e+00
 0.000000000000000000e+00
 0.000000000000000000e+00
 0.000000000000000000e+00
 0.000000000000000000e+00
 0.000000000000000000e+00
 0.000000000000000000e+00
 0.000000000000000000e+00
 0.000000000000000000e+00
 0.000000000000000000e+00
 0.000000000000000000e+00
 0.000000000000000000e+00
 0.000000000000000000e+00
 0.000000000000000000e+00
 0.000000000000000000e+00
 0.000000000000000000e+00
 0.000000000000000000e+00
 0.000000000000000000e+00
 0.000000000000000000e+00
 0.000000000000000000e+00
 0.000000000000000000e+00
 0.000000000000000000e+00
 0.000000000000000000e+00
 0.000000000000000000e+00
 0.000000000000000000e+00
 0.000000000000000000e+00
 0.000000000000000000e+00
 0.000000000000000000e+00
 0.000000000000000000e+00
 0.000000000000000000e+00
 0.000000000000000000e+00
 0.000000000000000000e+00
 0.000000000000000000e+00
 0.000000000000000000e+00
 0.000000000000000000e+00
 0.000000000000000000e+00
 0.000000000000000000e+00
 0.000000000000000000e+00
 0.000000000000000000e+00
 0.000000000000000000e+00
 0.000000000000000000e+00
 0.000000000000000000e+00
 0.000000000000000000e+00
 0.000000000000000000e+00
 0.000000000000000000e+00
 0.000000000000000000e+00
 0.000000000000000000e+00
 0.000000000000000000e+00
 0.000000000000000000e+00
 0.000000000000000000e+00
 0.000000000000000000e+00
 0.000000000000000000e+00
 0.000000000000000000e+00
 0.000000000000000000e+00
 0.000000000000000000e+00
 0.000000000000000000e+00
 0.000000000000000000e+00
 0.000000000000000000e+00
 0.000000000000000000e+00
 0.000000000000000000e+00
 0.000000000000000000e+00
 0.000000000000000000e+00
 0.000000000000000000e+00
 0.000000000000000000e+00
 0.000000000000000000e+00
 0.000000000000000000e+00
 0.000000000000000000e+00
 0.000000000000000000e+00
 0.000000000000000000e+00
 0.000000000000000000e+00
 0.000000000000000000e+00
 0.000000000000000000e+00
 0.000000000000000000e+00
 0.000000000000000000e+00
 0.000000000000000000e+00
 0.000000000000000000e+00
 0.000000000000000000e+00
 0.000000000000000000e+00
 0.000000000000000000e+00
 0.000000000000000000e+00
 0.000000000000000000e+00
 0.000000000000000000e+00
 0.000000000000000000e+00
 0.000000000000000000e+00
 0.000000000000000000e+00
 0.000000000000000000e+00
 0.000000000000000000e+00
 0.000000000000000000e+00
 0.000000000000000000e+00
 0.000000000000000000e+00
 0.000000000000000000e+00
 0.000000000000000000e+00
 0.000000000000000000e+00
 0.000000000000000000e+00
 0.000000000000000000e+00
 0.000000000000000000e+00
 0.000000000000000000e+00
 0.000000000000000000e+00
 0.000000000000000000e+00
 0.000000000000000000e+00
 0.000000000000000000e+00
 0.000000000000000000e+00
 0.000000000000000000e+00
 0.000000000000000000e+00
 0.000000000000000000e+00
 0.000000000000000000e+00
 0.000000000000000000e+00
 0.000000000000000000e+00
 </DataArray>
 <DataArray Name="rho" type="Float32" NumberOfComponents="1" format="ascii">
 5.243941235055566384e-03
 5.243941235055566384e-03
 5.243941235055566384e-03
 5.243941235055566384e-03
 5.243941235055566384e-03
 5.243941235055566384e-03
 5.243941235055566384e-03
 5.243941235055566384e-03
 5.243941235055566384e-03
 5.243941235055566384e-03
 5.243941235055566384e-03
 5.243941235055566384e-03
 5.243941235055566384e-03
 5.243941235055566384e-03
 5.243941235055566384e-03
 5.243941235055566384e-03
 5.243941235055566384e-03
 5.243941235055566384e-03
 5.243941235055566384e-03
 5.243941235055566384e-03
 5.243941235055566384e-03
 5.243941235055566384e-03
 5.243941235055566384e-03
 5.243941235055566384e-03
 5.243941235055566384e-03
 5.243941235055566384e-03
 5.243941235055566384e-03
 5.243941235055566384e-03
 5.243941235055566384e-03
 5.243941235055566384e-03
 5.243941235055566384e-03