<VTKFile type="UnstructuredGrid" byte_order="BigEndian">
<UnstructuredGrid><Piece NumberOfPoints="651" NumberOfCells="600">
<Points>
 <DataArray type="Float32" NumberOfComponents="3" format="ascii">
 0.000000000000000000e+00 0.000000000000000000e+00 0.000000000000000000e+00
 2.916064811870455742e-03 0.000000000000000000e+00 0.000000000000000000e+00
 5.782573949545621872e-03 0.000000000000000000e+00 0.000000000000000000e+00
 8.553283289074897766e-03 0.000000000000000000e+00 0.000000000000000000e+00
 1.118811592459678650e-02 0.000000000000000000e+00 0.000000000000000000e+00
 1.365519687533378601e-02 0.000000000000000000e+00 0.000000000000000000e+00
 1.593190617859363556e-02 0.000000000000000000e+00 0.000000000000000000e+00
 1.800495572388172150e-02 0.000000000000000000e+00 0.000000000000000000e+00
 1.986964419484138489e-02 0.000000000000000000e+00 0.000000000000000000e+00
 2.152857556939125061e-02 0.000000000000000000e+00 0.000000000000000000e+00
 2.299007959663867950e-02 0.000000000000000000e+00 0.000000000000000000e+00
 2.426659129559993744e-02 0.000000000000000000e+00 0.000000000000000000e+00
 2.537315338850021362e-02 0.000000000000000000e+00 0.000000000000000000e+00
 2.632614038884639740e-02 0.000000000000000000e+00 0.000000000000000000e+00
 2.714225277304649353e-02 0.000000000000000000e+00 0.000000000000000000e+00
 2.783778868615627289e-02 0.000000000000000000e+00 0.000000000000000000e+00
 2.842812426388263702e-02 0.000000000000000000e+00 0.000000000000000000e+00
 2.892742678523063660e-02 0.000000000000000000e+00 0.000000000000000000e+00
 2.934848517179489136e-02 0.000000000000000000e+00 0.000000000000000000e+00
 2.970267832279205322e-02 0.000000000000000000e+00 0.000000000000000000e+00
 2.999999932944774628e-02 0.000000000000000000e+00 0.000000000000000000e+00
 0.000000000000000000e+00 1.282335579162463546e-04 0.000000000000000000e+00
 2.916064811870455742e-03 1.282335579162463546e-04 0.000000000000000000e+00
 5.782573949545621872e-03 1.282335579162463546e-04 0.000000000000000000e+00
 8.553283289074897766e-03 1.282335579162463546e-04 0.000000000000000000e+00
 1.118811592459678650e-02 1.282335579162463546e-04 0.000000000000000000e+00
 1.365519687533378601e-02 1.282335579162463546e-04 0.000000000000000000e+00
 1.593190617859363556e-02 1.282335579162463546e-04 0.000000000000000000e+00
 1.800495572388172150e-02 1.282335579162463546e-04 0.000000000000000000e+00
 1.986964419484138489e-02 1.282335579162463546e-04 0.000000000000000000e+00
 2.152857556939125061e-02 1.282335579162463546e-04 0.000000000000000000e+00
 2.299007959663867950e-02 1.282335579162463546e-04 0.000000000000000000e+00
 2.426659129559993744e-02 1.282335579162463546e-04 0.000000000000000000e+00
 2.537315338850021362e-02 1.282335579162463546e-04 0.000000000000000000e+00
 2.632614038884639740e-02 1.282335579162463546e-04 0.000000000000000000e+00
 2.714225277304649353e-02 1.282335579162463546e-04 0.000000000000000000e+00
 2.783778868615627289e-02 1.282335579162463546e-04 0.000000000000000000e+00
 2.842812426388263702e-02 1.282335579162463546e-04 0.000000000000000000e+00
 2.892742678523063660e-02 1.282335579162463546e-04 0.000000000000000000e+00
 2.934848517179489136e-02 1.282335579162463546e-04 0.000000000000000000e+00
 2.970267832279205322e-02 1.282335579162463546e-04 0.000000000000000000e+00
 2.999999932944774628e-02 1.282335579162463546e-04 0.000000000000000000e+00
 0.000000000000000000e+00 2.724006481003016233e-04 0.000000000000000000e+00
 2.916064811870455742e-03 2.724006481003016233e-04 0.000000000000000000e+00
 5.782573949545621872e-03 2.724006481003016233e-04 0.000000000000000000e+00
 8.553283289074897766e-03 2.724006481003016233e-04 0.000000000000000000e+00
 1.118811592459678650e-02 2.724006481003016233e-04 0.000000000000000000e+00
 1.365519687533378601e-02 2.724006481003016233e-04 0.000000000000000000e+00
 1.593190617859363556e-02 2.724006481003016233e-04 0.000000000000000000e+00
 1.800495572388172150e-02 2.724006481003016233e-04 0.000000000000000000e+00
 1.986964419484138489e-02 2.724006481003016233e-04 0.000000000000000000e+00
 2.152857556939125061e-02 2.724006481003016233e-04 0.000000000000000000e+00
 2.299007959663867950e-02 2.724006481003016233e-04 0.000000000000000000e+00
 2.426659129559993744e-02 2.724006481003016233e-04 0.000000000000000000e+00
 2.537315338850021362e-02 2.724006481003016233e-04 0.000000000000000000e+00
 2.632614038884639740e-02 2.724006481003016233e-04 0.000000000000000000e+00
 2.714225277304649353e-02 2.724006481003016233e-04 0.000000000000000000e+00
 2.783778868615627289e-02 2.724006481003016233e-04 0.000000000000000000e+00
 2.842812426388263702e-02 2.724006481003016233e-04 0.000000000000000000e+00
 2.892742678523063660e-02 2.724006481003016233e-04 0.000000000000000000e+00
 2.934848517179489136e-02 2.724006481003016233e-04 0.000000000000000000e+00
 2.970267832279205322e-02 2.724006481003016233e-04 0.000000000000000000e+00
 2.999999932944774628e-02 2.724006481003016233e-04 0.000000000000000000e+00
 0.000000000000000000e+00 4.343430919107049704e-04 0.000000000000000000e+00
 2.916064811870455742e-03 4.343430919107049704e-04 0.000000000000000000e+00
 5.782573949545621872e-03 4.343430919107049704e-04 0.000000000000000000e+00
 8.553283289074897766e-03 4.343430919107049704e-04 0.000000000000000000e+00
 1.118811592459678650e-02 4.343430919107049704e-04 0.000000000000000000e+00
 1.365519687533378601e-02 4.343430919107049704e-04 0.000000000000000000e+00
 1.593190617859363556e-02 4.343430919107049704e-04 0.000000000000000000e+00
 1.800495572388172150e-02 4.343430919107049704e-04 0.000000000000000000e+00
 1.986964419484138489e-02 4.343430919107049704e-04 0.000000000000000000e+00
 2.152857556939125061e-02 4.343430919107049704e-04 0.000000000000000000e+00
 2.299007959663867950e-02 4.343430919107049704e-04 0.000000000000000000e+00
 2.426659129559993744e-02 4.343430919107049704e-04 0.000000000000000000e+00
 2.537315338850021362e-02 4.343430919107049704e-04 0.000000000000000000e+00
 2.632614038884639740e-02 4.343430919107049704e-04 0.000000000000000000e+00
 2.714225277304649353e-02 4.343430919107049704e-04 0.000000000000000000e+00
 2.783778868615627289e-02 4.343430919107049704e-04 0.000000000000000000e+00
 2.842812426388263702e-02 4.343430919107049704e-04 0.000000000000000000e+00
 2.892742678523063660e-02 4.343430919107049704e-04 0.000000000000000000e+00
 2.934848517179489136e-02 4.343430919107049704e-04 0.000000000000000000e+00
 2.970267832279205322e-02 4.343430919107049704e-04 0.000000000000000000e+00
 2.999999932944774628e-02 4.343430919107049704e-04 0.000000000000000000e+00
 0.000000000000000000e+00 6.160786142572760582e-04 0.000000000000000000e+00
 2.916064811870455742e-03 6.160786142572760582e-04 0.000000000000000000e+00
 5.782573949545621872e-03 6.160786142572760582e-04 0.000000000000000000e+00
 8.553283289074897766e-03 6.160786142572760582e-04 0.000000000000000000e+00
 1.118811592459678650e-02 6.160786142572760582e-04 0.000000000000000000e+00
 1.365519687533378601e-02 6.160786142572760582e-04 0.000000000000000000e+00
 1.593190617859363556e-02 6.160786142572760582e-04 0.000000000000000000e+00
 1.800495572388172150e-02 6.160786142572760582e-04 0.000000000000000000e+00
 1.986964419484138489e-02 6.160786142572760582e-04 0.000000000000000000e+00
 2.152857556939125061e-02 6.160786142572760582e-04 0.000000000000000000e+00
 2.299007959663867950e-02 6.160786142572760582e-04 0.000000000000000000e+00
 2.426659129559993744e-02 6.160786142572760582e-04 0.000000000000000000e+00
 2.537315338850021362e-02 6.160786142572760582e-04 0.000000000000000000e+00
 2.632614038884639740e-02 6.160786142572760582e-04 0.000000000000000000e+00
 2.714225277304649353e-02 6.160786142572760582e-04 0.000000000000000000e+00
 2.783778868615627289e-02 6.160786142572760582e-04 0.000000000000000000e+00
 2.842812426388263702e-02 6.160786142572760582e-04 0.000000000000000000e+00
 2.892742678523063660e-02 6.160786142572760582e-04 0.000000000000000000e+00
 2.934848517179489136e-02 6.160786142572760582e-04 0.000000000000000000e+00
 2.970267832279205322e-02 6.160786142572760582e-04 0.000000000000000000e+00
 2.999999932944774628e-02 6.160786142572760582e-04 0.000000000000000000e+00
 0.000000000000000000e+00 8.198075811378657818e-04 0.000000000000000000e+00
 2.916064811870455742e-03 8.198075811378657818e-04 0.000000000000000000e+00
 5.782573949545621872e-03 8.198075811378657818e-04 0.000000000000000000e+00
 8.553283289074897766e-03 8.198075811378657818e-04 0.000000000000000000e+00
 1.118811592459678650e-02 8.198075811378657818e-04 0.000000000000000000e+00
 1.365519687533378601e-02 8.198075811378657818e-04 0.000000000000000000e+00
 1.593190617859363556e-02 8.198075811378657818e-04 0.000000000000000000e+00
 1.800495572388172150e-02 8.198075811378657818e-04 0.000000000000000000e+00
 1.986964419484138489e-02 8.198075811378657818e-04 0.000000000000000000e+00
 2.152857556939125061e-02 8.198075811378657818e-04 0.000000000000000000e+00
 2.299007959663867950e-02 8.198075811378657818e-04 0.000000000000000000e+00
 2.426659129559993744e-02 8.198075811378657818e-04 0.000000000000000000e+00
 2.537315338850021362e-02 8.198075811378657818e-04 0.000000000000000000e+00
 2.632614038884639740e-02 8.198075811378657818e-04 0.000000000000000000e+00
 2.714225277304649353e-02 8.198075811378657818e-04 0.000000000000000000e+00
 2.783778868615627289e-02 8.198075811378657818e-04 0.000000000000000000e+00
 2.842812426388263702e-02 8.198075811378657818e-04 0.000000000000000000e+00
 2.892742678523063660e-02 8.198075811378657818e-04 0.000000000000000000e+00
 2.934848517179489136e-02 8.198075811378657818e-04 0.000000000000000000e+00
 2.970267832279205322e-02 8.198075811378657818e-04 0.000000000000000000e+00
 2.999999932944774628e-02 8.198075811378657818e-04 0.000000000000000000e+00
 0.000000000000000000e+00 1.047916943207383156e-03 0.000000000000000000e+00
 2.916064811870455742e-03 1.047916943207383156e-03 0.000000000000000000e+00
[...]
<CellData>
 <DataArray Name="pos.x" type="Float32" NumberOfComponents="1" format="ascii">
 1.458032413135714172e-03
 4.349319342921551326e-03
 7.167928746956159745e-03
 9.870699673595970808e-03
 1.242165607252453813e-02
 1.479355156095936430e-02
 1.696843105060690665e-02
 1.893729965308385901e-02
 2.069910950339477751e-02
 2.225932721907897954e-02
 2.362833550513067718e-02
 2.481987261865327768e-02
 2.584964664786485594e-02
 2.673419667486204993e-02
 2.749002088806690863e-02
 2.813295636571508385e-02
 2.867777544907309725e-02
 2.913795585838870050e-02
 2.952558194885216564e-02
 2.985133925834696639e-02
 1.458032413135714172e-03
 4.349319342921551326e-03
 7.167928746956159745e-03
 9.870699673595970808e-03
 1.242165607252453813e-02
 1.479355156095936430e-02
 1.696843105060690665e-02
 1.893729965308385901e-02
 2.069910950339477751e-02
 2.225932721907897954e-02
 2.362833550513067718e-02
 2.481987261865328115e-02
 2.584964664786485594e-02
 2.673419667486204993e-02
 2.749002088806690863e-02
 2.813295636571508385e-02
 2.867777544907310072e-02
 2.913795585838870050e-02
 2.952558194885216564e-02
 2.985133925834696639e-02
 1.458032413135714172e-03
 4.349319342921551326e-03
 7.167928746956159745e-03
 9.870699673595970808e-03
 1.242165607252453813e-02
 1.479355156095936430e-02
 1.696843105060690665e-02
 1.893729965308385554e-02
 2.069910950339477751e-02
 2.225932721907897954e-02
 2.362833550513067718e-02
 2.481987261865327768e-02
 2.584964664786485594e-02
 2.673419667486204993e-02
 2.749002088806691557e-02
 2.813295636571508385e-02
 2.867777544907310072e-02
 2.913795585838870050e-02
 2.952558194885216564e-02
 2.985133925834696639e-02
 1.458032413135714172e-03
 4.349319342921550459e-03
 7.167928746956158878e-03
 9.870699673595970808e-03
 1.242165607252453813e-02
 1.479355156095936430e-02
 1.696843105060690318e-02
 1.893729965308385554e-02
 2.069910950339477751e-02
 2.225932721907897954e-02
 2.362833550513067371e-02
 2.481987261865327768e-02
 2.584964664786486288e-02
 2.673419667486205686e-02
 2.749002088806691210e-02
 2.813295636571508038e-02
 2.867777544907310072e-02
 2.913795585838870050e-02
 2.952558194885216564e-02
 2.985133925834696639e-02
 1.458032413135714172e-03
 4.349319342921550459e-03
 7.167928746956159745e-03
 9.870699673595970808e-03
 1.242165607252453813e-02
 1.479355156095936430e-02
 1.696843105060690318e-02
 1.893729965308385554e-02
 2.069910950339477751e-02
 2.225932721907897954e-02
 2.362833550513067371e-02
 2.481987261865327768e-02
 2.584964664786485594e-02
 2.673419667486205339e-02
 2.749002088806691557e-02
 2.813295636571508385e-02
 2.867777544907310072e-02
 2.913795585838870050e-02
 2.952558194885216564e-02
 2.985133925834696639e-02
 1.458032413135714172e-03
 4.349319342921551326e-03
 7.167928746956160613e-03
 9.870699673595969073e-03
 1.242165607252453813e-02
 1.479355156095936430e-02
 1.696843105060690318e-02
 1.893729965308385554e-02
 2.069910950339477751e-02
 2.225932721907897954e-02
 2.362833550513068065e-02
 2.481987261865328115e-02
 2.584964664786485594e-02
 2.673419667486204993e-02
 2.749002088806691557e-02
 2.813295636571508385e-02
 2.867777544907309725e-02
 2.913795585838870050e-02
 2.952558194885216564e-02
 2.985133925834696639e-02
 1.458032413135714172e-03
 4.349319342921551326e-03
 7.167928746956161480e-03
 9.870699673595970808e-03
 1.242165607252453813e-02
 1.479355156095936430e-02
 1.696843105060690665e-02
 1.893729965308385554e-02
 2.069910950339477751e-02
 2.225932721907898301e-02
 2.362833550513067718e-02
 2.481987261865327768e-02
 2.584964664786485594e-02
 2.673419667486204993e-02
 2.749002088806690863e-02
 2.813295636571508385e-02
 2.867777544907310072e-02
 2.913795585838870050e-02
 2.952558194885216564e-02
 2.985133925834696639e-02
 1.458032413135714172e-03
 4.349319342921552194e-03
 7.167928746956162347e-03
 9.870699673595970808e-03
 1.242165607252453813e-02
 1.479355156095936430e-02
 1.696843105060690665e-02
 1.893729965308385901e-02
 2.069910950339477751e-02
 2.225932721907897954e-02
 2.362833550513067718e-02
 2.481987261865328115e-02
 2.584964664786485594e-02
 2.673419667486204993e-02
 2.749002088806690863e-02
 2.813295636571508038e-02
 2.867777544907309725e-02
 2.913795585838870050e-02
 2.952558194885216564e-02
 2.985133925834696639e-02
 1.458032413135714172e-03
 4.349319342921552194e-03
 7.167928746956160613e-03
 9.870699673595969073e-03
 1.242165607252453813e-02
 1.479355156095936430e-02
 1.696843105060690318e-02
 1.893729965308385554e-02
 2.069910950339477751e-02
 2.225932721907897954e-02
 2.362833550513067718e-02
 2.481987261865327768e-02
 2.584964664786485594e-02
 2.673419667486205339e-02
 2.749002088806690863e-02
 2.813295636571508385e-02
 2.867777544907310072e-02
 2.913795585838870050e-02
 2.952558194885216564e-02
 2.985133925834696639e-02
 1.458032413135714172e-03
 4.349319342921551326e-03
 7.167928746956159745e-03
 9.870699673595970808e-03
 1.242165607252453813e-02
 1.479355156095936430e-02
 1.696843105060690318e-02
 1.893729965308385901e-02
 2.069910950339477751e-02
 2.225932721907897954e-02
 2.362833550513067371e-02
 2.481987261865327768e-02
 2.584964664786485594e-02
 2.673419667486204993e-02
 2.749002088806690863e-02
 2.813295636571508038e-02
 2.867777544907309378e-02
 2.913795585838869703e-02
 2.952558194885216564e-02
 2.985133925834696639e-02
 1.458032413135714172e-03
 4.349319342921551326e-03
 7.167928746956159745e-03
 9.870699673595970808e-03
 1.242165607252453813e-02
 1.479355156095936430e-02
 1.696843105060690665e-02
 1.893729965308385554e-02
 2.069910950339477751e-02
 2.225932721907897954e-02
 2.362833550513067718e-02
 2.481987261865327768e-02
 2.584964664786485247e-02
 2.673419667486204993e-02
 2.749002088806690516e-02
 2.813295636571508385e-02
 2.867777544907309378e-02
 2.913795585838869703e-02
 2.952558194885216564e-02
 2.985133925834696639e-02
 1.458032413135714172e-03
 4.349319342921551326e-03
 7.167928746956159745e-03
 9.870699673595969073e-03
 1.242165607252453986e-02
 1.479355156095936430e-02
 1.696843105060690318e-02
 1.893729965308385554e-02
 2.069910950339477751e-02
 2.225932721907897954e-02
 2.362833550513067371e-02
 2.481987261865327768e-02
 2.584964664786485594e-02
 2.673419667486204993e-02
 2.749002088806690516e-02
 2.813295636571508038e-02
 2.867777544907309378e-02
 2.913795585838870050e-02
 2.952558194885216564e-02
 2.985133925834696639e-02
 1.458032413135714172e-03
 4.349319342921551326e-03
 7.167928746956159745e-03
 9.870699673595970808e-03
 1.242165607252453813e-02
 1.479355156095936430e-02
 1.696843105060690318e-02
 1.893729965308385554e-02
 2.069910950339477751e-02
 2.225932721907897954e-02
 2.362833550513067718e-02
 2.481987261865327768e-02
 2.584964664786485594e-02
 2.673419667486204993e-02
 2.749002088806690863e-02
 2.813295636571508038e-02
 2.867777544907309725e-02
 2.913795585838870050e-02
 2.952558194885216564e-02
 2.985133925834696639e-02
 1.458032413135714172e-03
 4.349319342921552194e-03
 7.167928746956161480e-03
 9.870699673595970808e-03
 1.242165607252453813e-02
 1.479355156095936430e-02
 1.696843105060690318e-02
 1.893729965308385554e-02
 2.069910950339477751e-02
 2.225932721907897954e-02
 2.362833550513067718e-02
 2.481987261865328115e-02
 2.584964664786485594e-02
 2.673419667486204993e-02
 2.749002088806690863e-02
 2.813295636571508038e-02
 2.867777544907310072e-02
 2.913795585838870050e-02
 2.952558194885216564e-02
 2.985133925834696639e-02
 1.458032413135714172e-03
 4.349319342921551326e-03
 7.167928746956161480e-03
 9.870699673595969073e-03
 1.242165607252453813e-02
 1.479355156095936430e-02
 1.696843105060690318e-02
 1.893729965308385901e-02
 2.069910950339477751e-02
 2.225932721907898301e-02
 2.362833550513068065e-02
 2.481987261865328115e-02
 2.584964664786485594e-02
 2.673419667486204993e-02
 2.749002088806690863e-02
 2.813295636571508038e-02
 2.867777544907310072e-02
 2.913795585838870397e-02
 2.952558194885216564e-02
 2.985133925834696639e-02
 1.458032413135714172e-03
 4.349319342921551326e-03
 7.167928746956159745e-03
 9.870699673595969073e-03
 1.242165607252453986e-02
 1.479355156095936430e-02
 1.696843105060690665e-02
 1.893729965308385554e-02
 2.069910950339477751e-02
 2.225932721907898301e-02
 2.362833550513067718e-02
 2.481987261865327768e-02
 2.584964664786486288e-02
 2.673419667486205686e-02
 2.749002088806691557e-02
 2.813295636571508385e-02
 2.867777544907309378e-02
 2.913795585838869703e-02
 2.952558194885216564e-02
 2.985133925834696986e-02
 1.458032413135714172e-03
 4.349319342921551326e-03
 7.167928746956160613e-03
 9.870699673595970808e-03
 1.242165607252453986e-02
 1.479355156095936430e-02
 1.696843105060690318e-02
 1.893729965308385554e-02
 2.069910950339477751e-02
 2.225932721907897954e-02
 2.362833550513067718e-02
 2.481987261865328115e-02
 2.584964664786485594e-02
 2.673419667486204993e-02
 2.749002088806691557e-02
 2.813295636571508385e-02
 2.867777544907309378e-02
 2.913795585838869703e-02
 2.952558194885216564e-02
 2.985133925834696639e-02
 1.458032413135714172e-03
 4.349319342921550459e-03
 7.167928746956159745e-03
 9.870699673595970808e-03
 1.242165607252453813e-02
 1.479355156095936430e-02
 1.696843105060690665e-02
 1.893729965308385901e-02
 2.069910950339477751e-02
 2.225932721907897954e-02
 2.362833550513067718e-02
 2.481987261865328115e-02
 2.584964664786485594e-02
 2.673419667486204993e-02
 2.749002088806691557e-02
 2.813295636571508385e-02
 2.867777544907309378e-02
 2.913795585838869356e-02
 2.952558194885216564e-02
 2.985133925834696639e-02
 1.458032413135714172e-03
 4.349319342921551326e-03
 7.167928746956159745e-03
 9.870699673595970808e-03
 1.242165607252454160e-02
 1.479355156095936430e-02
 1.696843105060690665e-02
 1.893729965308385554e-02
 2.069910950339477751e-02
 2.225932721907897954e-02
 2.362833550513067718e-02
 2.481987261865328115e-02
 2.584964664786485594e-02
 2.673419667486204993e-02
 2.749002088806690863e-02
 2.813295636571508385e-02
 2.867777544907309378e-02
 2.913795585838869356e-02
 2.952558194885216564e-02
 2.985133925834696639e-02
 1.458032413135714172e-03
 4.349319342921551326e-03
 7.167928746956159745e-03
 9.870699673595970808e-03
 1.242165607252453813e-02
 1.479355156095936430e-02
 1.696843105060690318e-02
 1.893729965308385554e-02
 2.069910950339477751e-02
 2.225932721907897954e-02
 2.362833550513067718e-02
 2.481987261865327768e-02
 2.584964664786485594e-02
 2.673419667486204993e-02
 2.749002088806690863e-02
 2.813295636571507691e-02
 2.867777544907309378e-02
 2.913795585838870050e-02
 2.952558194885216564e-02
 2.985133925834696639e-02
 1.458032413135714172e-03
 4.349319342921551326e-03
 7.167928746956159745e-03
 9.870699673595970808e-03
 1.242165607252453813e-02
 1.479355156095936430e-02
 1.696843105060690318e-02
 1.893729965308385554e-02
 2.069910950339477751e-02
 2.225932721907897954e-02
 2.362833550513067371e-02
 2.481987261865327768e-02
 2.584964664786485594e-02
 2.673419667486204993e-02
 2.749002088806691557e-02
 2.813295636571507691e-02
 2.867777544907309378e-02
 2.913795585838870050e-02
 2.952558194885216564e-02
 2.985133925834696292e-02
 1.458032413135714172e-03
 4.349319342921551326e-03
 7.167928746956159745e-03
 9.870699673595969073e-03
 1.242165607252453813e-02
 1.479355156095936430e-02
 1.696843105060690318e-02
 1.893729965308385554e-02
 2.069910950339477751e-02
 2.225932721907897954e-02
 2.362833550513067718e-02
 2.481987261865328115e-02
 2.584964664786485594e-02
 2.673419667486204993e-02
 2.749002088806690863e-02
 2.813295636571508385e-02
 2.867777544907309725e-02
 2.913795585838870050e-02
 2.952558194885216564e-02
 2.985133925834696639e-02
 1.458032413135714172e-03
 4.349319342921551326e-03
 7.167928746956159745e-03
 9.870699673595970808e-03
 1.242165607252453813e-02
 1.479355156095936430e-02
 1.696843105060690318e-02
 1.893729965308385554e-02
 2.069910950339477751e-02
 2.225932721907897954e-02
 2.362833550513068065e-02
 2.481987261865327768e-02
 2.584964664786485594e-02
 2.673419667486204993e-02
 2.749002088806690863e-02
 2.813295636571508385e-02
 2.867777544907310072e-02
 2.913795585838870050e-02
 2.952558194885216564e-02
 2.985133925834695945e-02
 1.458032413135714172e-03
 4.349319342921551326e-03
 7.167928746956159745e-03
 9.870699673595970808e-03
 1.242165607252453813e-02
 1.479355156095936430e-02
 1.696843105060690318e-02
 1.893729965308385901e-02
 2.069910950339477751e-02
 2.225932721907898301e-02
 2.362833550513068065e-02
 2.481987261865327768e-02
 2.584964664786485594e-02
 2.673419667486204993e-02
 2.749002088806690863e-02
 2.813295636571508385e-02
 2.867777544907310072e-02
 2.913795585838870397e-02
 2.952558194885216564e-02
 2.985133925834695945e-02
 1.458032413135714172e-03
 4.349319342921550459e-03
 7.167928746956158878e-03
 9.870699673595970808e-03
 1.242165607252453813e-02
 1.479355156095936430e-02
 1.696843105060690665e-02
 1.893729965308385901e-02
 2.069910950339477751e-02
 2.225932721907897954e-02
 2.362833550513067718e-02
 2.481987261865328115e-02
 2.584964664786485594e-02
 2.673419667486204993e-02
 2.749002088806691557e-02
 2.813295636571508385e-02
 2.867777544907310072e-02
 2.913795585838870050e-02
 2.952558194885216564e-02
 2.985133925834696292e-02
 1.458032413135714172e-03
 4.349319342921549592e-03
 7.167928746956158878e-03
 9.870699673595970808e-03
 1.242165607252453813e-02
 1.479355156095936430e-02
 1.696843105060690665e-02
 1.893729965308385554e-02
 2.069910950339477751e-02
 2.225932721907897954e-02
 2.362833550513067718e-02
 2.481987261865327768e-02
 2.584964664786485594e-02
 2.673419667486204993e-02
 2.749002088806691557e-02
 2.813295636571508038e-02
 2.867777544907309378e-02
 2.913795585838870050e-02
 2.952558194885216564e-02
 2.985133925834696639e-02
 1.458032413135714172e-03
 4.349319342921550459e-03
 7.167928746956159745e-03
 9.870699673595970808e-03
 1.242165607252453813e-02
 1.479355156095936430e-02
 1.696843105060690318e-02
 1.893729965308385901e-02
 2.069910950339477751e-02
 2.225932721907897954e-02
 2.362833550513067371e-02
 2.481987261865327421e-02
 2.584964664786485594e-02
 2.673419667486204993e-02
 2.749002088806690863e-02
 2.813295636571508385e-02
 2.867777544907309725e-02
 2.913795585838870744e-02
 2.952558194885217258e-02
 2.985133925834696639e-02
 1.458032413135714172e-03
 4.349319342921551326e-03
 7.167928746956159745e-03
 9.870699673595970808e-03
 1.242165607252453813e-02
 1.479355156095936430e-02
 1.696843105060690665e-02
 1.893729965308385554e-02
 2.069910950339477404e-02
 2.225932721907897954e-02
 2.362833550513067718e-02
 2.481987261865328115e-02
 2.584964664786485594e-02
 2.673419667486204993e-02
 2.749002088806690863e-02
 2.813295636571508385e-02
 2.867777544907310072e-02
 2.913795585838870397e-02
 2.952558194885216911e-02
 2.985133925834696639e-02
 1.458032413135713955e-03
 4.349319342921551326e-03
 7.167928746956160613e-03
 9.870699673595970808e-03
 1.242165607252453813e-02
 1.479355156095936430e-02
 1.696843105060690318e-02
 1.893729965308385554e-02
 2.069910950339477404e-02
 2.225932721907897954e-02
 2.362833550513067718e-02
 2.481987261865328115e-02
 2.584964664786485594e-02
 2.673419667486204993e-02
 2.749002088806691557e-02
 2.813295636571508385e-02
 2.867777544907309725e-02
 2.913795585838870050e-02
 2.952558194885216564e-02
 2.985133925834696639e-02
 1.458032413135714172e-03
 4.349319342921551326e-03
 7.167928746956159745e-03
 9.870699673595970808e-03
 1.242165607252453813e-02
 1.479355156095936430e-02
 1.696843105060690665e-02
 1.893729965308385901e-02
 2.069910950339477751e-02
 2.225932721907897954e-02
 2.362833550513067718e-02
 2.481987261865327768e-02
 2.584964664786485594e-02
 2.673419667486204993e-02
 2.749002088806690863e-02
 2.813295636571508385e-02
 2.867777544907310072e-02
 2.913795585838870050e-02
 2.952558194885216564e-02
 2.985133925834696639e-02
 </DataArray>
 <DataArray Name="pos.y" type="Float32" NumberOfComponents="1" format="ascii">
 6.411677893445211652e-05
 6.411677893445211652e-05
 6.411677893445211652e-05
 6.411677893445211652e-05
 6.411677893445211652e-05
 6.411677893445211652e-05
 6.411677893445211652e-05
 6.411677893445211652e-05
 6.411677893445211652e-05
 6.411677893445211652e-05
 6.411677893445211652e-05
 6.411677893445211652e-05
 6.411677893445211652e-05
 6.411677893445211652e-05
 6.411677893445211652e-05
 6.411677893445211652e-05
 6.411677893445211652e-05
 6.411677893445211652e-05
 6.411677893445211652e-05
 6.411677893445211652e-05
 2.003170990051250482e-04
 2.003170990051250482e-04
 2.003170990051250482e-04
 2.003170990051250482e-04
 2.003170990051250482e-04
 2.003170990051251024e-04
 2.003170990051251024e-04
 2.003170990051250753e-04
 2.003170990051251024e-04
 2.003170990051250753e-04
 2.003170990051250482e-04
 2.003170990051250482e-04
 2.003170990051250482e-04
 2.003170990051250482e-04
 2.003170990051250482e-04
 2.003170990051250482e-04
 2.003170990051250482e-04
 2.003170990051250482e-04
 2.003170990051250482e-04
 2.003170990051250482e-04
 3.533718597338719324e-04
 3.533718597338719324e-04
 3.533718597338719866e-04
 3.533718597338719866e-04
 3.533718597338719866e-04
 3.533718597338720408e-04
 3.533718597338720408e-04
 3.533718597338720408e-04
 3.533718597338719866e-04
 3.533718597338719866e-04
 3.533718597338719866e-04
 3.533718597338719324e-04
 3.533718597338719324e-04
 3.533718597338719866e-04
 3.533718597338719324e-04
 3.533718597338719866e-04
 3.533718597338719866e-04
 3.533718597338719866e-04
 3.533718597338719866e-04
 3.533718597338719866e-04
 5.252108385711750857e-04
 5.252108385711750857e-04
 5.252108385711750857e-04
 5.252108385711750857e-04
 5.252108385711751941e-04
 5.252108385711750857e-04
 5.252108385711750857e-04
 5.252108385711750857e-04
 5.252108385711750857e-04
 5.252108385711750857e-04
 5.252108385711750857e-04
 5.252108385711749773e-04
 5.252108385711750857e-04
 5.252108385711750857e-04
 5.252108385711749773e-04
 5.252108385711749773e-04
 5.252108385711750857e-04
 5.252108385711750857e-04
 5.252108385711750857e-04
 5.252108385711750857e-04
 7.179430794895025119e-04
 7.179430794895025119e-04
 7.179430794895024035e-04
 7.179430794895025119e-04
 7.179430794895025119e-04
 7.179430794895024035e-04
 7.179430794895024035e-04
 7.179430794895024035e-04
 7.179430794895024035e-04
 7.179430794895022951e-04
 7.179430794895024035e-04
 7.179430794895024035e-04
 7.179430794895024035e-04
 7.179430794895024035e-04
 7.179430794895025119e-04
 7.179430794895024035e-04
 7.179430794895024035e-04
 7.179430794895025119e-04
 7.179430794895025119e-04
 7.179430794895024035e-04
 9.338622597884616147e-04
 9.338622597884615063e-04
 9.338622597884615063e-04
 9.338622597884616147e-04
 9.338622597884615063e-04
 9.338622597884615063e-04
 9.338622597884615063e-04
 9.338622597884615063e-04
 9.338622597884615063e-04
 9.338622597884615063e-04
 9.338622597884615063e-04
 9.338622597884615063e-04
 9.338622597884615063e-04
 9.338622597884615063e-04
 9.338622597884615063e-04
 9.338622597884615063e-04
 9.338622597884615063e-04
 9.338622597884615063e-04
 9.338622597884615063e-04
 9.338622597884615063e-04
 1.175448770472211583e-03
 1.175448770472211583e-03
 1.175448770472211583e-03
 1.175448770472211583e-03
 1.175448770472211583e-03
 1.175448770472211583e-03
 1.175448770472211583e-03
 1.175448770472211583e-03
 1.175448770472211583e-03
 1.175448770472211583e-03
 1.175448770472211583e-03
 1.175448770472211583e-03
 1.175448770472211583e-03
 1.175448770472211583e-03
 1.175448770472211583e-03
 1.175448770472211583e-03
 1.175448770472211583e-03
 1.175448770472211366e-03
 1.175448770472211583e-03
 1.175448770472211583e-03
 1.445367388300478062e-03
 1.445367388300478279e-03
 1.445367388300478062e-03
 1.445367388300478062e-03
 1.445367388300478062e-03
 1.445367388300478062e-03
 1.445367388300478062e-03
 1.445367388300478062e-03
 1.445367388300478062e-03
 1.445367388300478062e-03
 1.445367388300478062e-03
 1.445367388300478062e-03
 1.445367388300478062e-03
 1.445367388300478062e-03
 1.445367388300478062e-03
 1.445367388300478062e-03
 1.445367388300478062e-03
 1.445367388300478062e-03
 1.445367388300478062e-03
 1.445367388300478062e-03
 1.746459228007582985e-03
 1.746459228007583419e-03