<VTKFile type="UnstructuredGrid" byte_order="BigEndian">
<UnstructuredGrid><Piece NumberOfPoints="64" NumberOfCells="45">
<Points>
 <DataArray type="Float32" NumberOfComponents="3" format="ascii">
 2.999999932944774628e-02 0.000000000000000000e+00 0.000000000000000000e+00
 3.006666712462902069e-02 0.000000000000000000e+00 0.000000000000000000e+00
 3.013333305716514587e-02 0.000000000000000000e+00 0.000000000000000000e+00
 3.020000085234642029e-02 0.000000000000000000e+00 0.000000000000000000e+00
 2.999999932944774628e-02 2.724006481003016233e-04 0.000000000000000000e+00
 3.006666712462902069e-02 2.724006481003016233e-04 0.000000000000000000e+00
 3.013333305716514587e-02 2.724006481003016233e-04 0.000000000000000000e+00
 3.020000085234642029e-02 2.724006481003016233e-04 0.000000000000000000e+00
 2.999999932944774628e-02 6.160786142572760582e-04 0.000000000000000000e+00
 3.006666712462902069e-02 6.160786142572760582e-04 0.000000000000000000e+00
 3.013333305716514587e-02 6.160786142572760582e-04 0.000000000000000000e+00
 3.020000085234642029e-02 6.160786142572760582e-04 0.000000000000000000e+00
 2.999999932944774628e-02 1.047916943207383156e-03 0.000000000000000000e+00
 3.006666712462902069e-02 1.047916943207383156e-03 0.000000000000000000e+00
 3.013333305716514587e-02 1.047916943207383156e-03 0.000000000000000000e+00
 3.020000085234642029e-02 1.047916943207383156e-03 0.000000000000000000e+00
 2.999999932944774628e-02 1.587754231877624989e-03 0.000000000000000000e+00
 3.006666712462902069e-02 1.587754231877624989e-03 0.000000000000000000e+00
 3.013333305716514587e-02 1.587754231877624989e-03 0.000000000000000000e+00
 3.020000085234642029e-02 1.587754231877624989e-03 0.000000000000000000e+00
 2.999999932944774628e-02 2.258288674056529999e-03 0.000000000000000000e+00
 3.006666712462902069e-02 2.258288674056529999e-03 0.000000000000000000e+00
 3.013333305716514587e-02 2.258288674056529999e-03 0.000000000000000000e+00
 3.020000085234642029e-02 2.258288674056529999e-03 0.000000000000000000e+00
 2.999999932944774628e-02 3.084564348682761192e-03 0.000000000000000000e+00
 3.006666712462902069e-02 3.084564348682761192e-03 0.000000000000000000e+00
 3.013333305716514587e-02 3.084564348682761192e-03 0.000000000000000000e+00
 3.020000085234642029e-02 3.084564348682761192e-03 0.000000000000000000e+00
 2.999999932944774628e-02 4.092831630259752274e-03 0.000000000000000000e+00
 3.006666712462902069e-02 4.092831630259752274e-03 0.000000000000000000e+00
 3.013333305716514587e-02 4.092831630259752274e-03 0.000000000000000000e+00
 3.020000085234642029e-02 4.092831630259752274e-03 0.000000000000000000e+00
 2.999999932944774628e-02 5.308576859533786774e-03 0.000000000000000000e+00
 3.006666712462902069e-02 5.308576859533786774e-03 0.000000000000000000e+00
 3.013333305716514587e-02 5.308576859533786774e-03 0.000000000000000000e+00
 3.020000085234642029e-02 5.308576859533786774e-03 0.000000000000000000e+00
 2.999999932944774628e-02 6.753570865839719772e-03 0.000000000000000000e+00
 3.006666712462902069e-02 6.753570865839719772e-03 0.000000000000000000e+00
 3.013333305716514587e-02 6.753570865839719772e-03 0.000000000000000000e+00
 3.020000085234642029e-02 6.753570865839719772e-03 0.000000000000000000e+00
 2.999999932944774628e-02 8.441984653472900391e-03 0.000000000000000000e+00
 3.006666712462902069e-02 8.441984653472900391e-03 0.000000000000000000e+00
 3.013333305716514587e-02 8.441984653472900391e-03 0.000000000000000000e+00
 3.020000085234642029e-02 8.441984653472900391e-03 0.000000000000000000e+00
 2.999999932944774628e-02 1.037593558430671692e-02 0.000000000000000000e+00
 3.006666712462902069e-02 1.037593558430671692e-02 0.000000000000000000e+00
 3.013333305716514587e-02 1.037593558430671692e-02 0.000000000000000000e+00
 3.020000085234642029e-02 1.037593558430671692e-02 0.000000000000000000e+00
 2.999999932944774628e-02 1.254125591367483139e-02 0.000000000000000000e+00
 3.006666712462902069e-02 1.254125591367483139e-02 0.000000000000000000e+00
 3.013333305716514587e-02 1.254125591367483139e-02 0.000000000000000000e+00
 3.020000085234642029e-02 1.254125591367483139e-02 0.000000000000000000e+00
 2.999999932944774628e-02 1.490467600524425507e-02 0.000000000000000000e+00
 3.006666712462902069e-02 1.490467600524425507e-02 0.000000000000000000e+00
 3.013333305716514587e-02 1.490467600524425507e-02 0.000000000000000000e+00
 3.020000085234642029e-02 1.490467600524425507e-02 0.000000000000000000e+00
 2.999999932944774628e-02 1.741369627416133881e-02 0.000000000000000000e+00
 3.006666712462902069e-02 1.741369627416133881e-02 0.000000000000000000e+00
 3.013333305716514587e-02 1.741369627416133881e-02 0.000000000000000000e+00
 3.020000085234642029e-02 1.741369627416133881e-02 0.000000000000000000e+00
 2.999999932944774628e-02 1.999999955296516418e-02 0.000000000000000000e+00
 3.006666712462902069e-02 1.999999955296516418e-02 0.000000000000000000e+00
 3.013333305716514587e-02 1.999999955296516418e-02 0.000000000000000000e+00
 3.020000085234642029e-02 1.999999955296516418e-02 0.000000000000000000e+00
 </DataArray>
</Points>
<Cells>
 <DataArray type="Int32" Name="connectivity" format="ascii">
 0 1 5 4
 1 2 6 5
 2 3 7 6
 4 5 9 8
 5 6 10 9
 6 7 11 10
 8 9 13 12
 9 10 14 13
 10 11 15 14
 12 13 17 16
 13 14 18 17
 14 15 19 18
 16 17 21 20
 17 18 22 21
 18 19 23 22
 20 21 25 24
 21 22 26 25
 22 23 27 26
 24 25 29 28
 25 26 30 29
 26 27 31 30
 28 29 33 32
 29 30 34 33
 30 31 35 34
 32 33 37 36
 33 34 38 37
 34 35 39 38
 36 37 41 40
 37 38 42 41
 38 39 43 42
 40 41 45 44
 41 42 46 45
 42 43 47 46
 44 45 49 48
 45 46 50 49
 46 47 51 50
 48 49 53 52
 49 50 54 53
 50 51 55 54
 52 53 57 56
 53 54 58 57
 54 55 59 58
 56 57 61 60
 57 58 62 61
 58 59 63 62
 </DataArray>
 <DataArray type="Int32" Name="offsets" format="ascii">
 4
 8
 12
 16
 20
 24
 28
 32
 36
 40
 44
 48
 52
 56
 60
 64
 68
 72
 76
 80
 84
 88
 92
 96
 100
 104
 108
 112
 116
 120
 124
 128
 132
 136
 140
 144
 148
 152
 156
 160
 164
 168
 172
 176
 180
 </DataArray>
 <DataArray type="UInt8" Name="types" format="ascii">
 9
 9
 9
 9
 9
 9
 9
 9
 9
 9
 9
 9
 9
 9
 9
 9
 9
 9
 9
 9
 9
 9
 9
 9
 9
 9
 9
 9
 9
 9
 9
 9
 9
 9
 9
 9
 9
 9
 9
 9
 9
 9
 9
 9
 9
 </DataArray>
</Cells>
<CellData>
 <DataArray Name="pos.x" type="Float32" NumberOfComponents="1" format="ascii">
 3.003333333333265548e-02
 3.010000000000045278e-02
 3.016666666666630373e-02
 3.003333333333286018e-02
 3.010000000000066442e-02
 3.016666666666666108e-02
 3.003333333333471633e-02
 3.009999999999919337e-02
 3.016666666666643903e-02
 3.003333333333279426e-02
 3.010000000000181627e-02
 3.016666666666511371e-02
 3.003333333333130933e-02
 3.009999999999857234e-02
 3.016666666666575555e-02
 3.003333333333104219e-02
 3.010000000000245812e-02
 3.016666666666632801e-02
 3.003333333333106994e-02
 3.009999999999949175e-02
 3.016666666666838539e-02
 3.003333333333460878e-02
 3.009999999999739620e-02
 3.016666666666591515e-02
 3.003333333333113586e-02
 3.009999999999991849e-02
 3.016666666666719190e-02
 3.003333333333255833e-02
 3.010000000000039033e-02
 3.016666666666612678e-02
 3.003333333333097280e-02
 3.009999999999952991e-02
 3.016666666666687618e-02
 3.003333333333320712e-02
 3.010000000000001216e-02
 3.016666666666567229e-02
 3.003333333333156954e-02
 3.010000000000213893e-02
 3.016666666666662985e-02
 3.003333333333185751e-02
 3.010000000000124382e-02
 3.016666666666653271e-02
 3.003333333333372407e-02
 3.010000000000029319e-02
 3.016666666666768803e-02
 </DataArray>
 <DataArray Name="pos.y" type="Float32" NumberOfComponents="1" format="ascii">
 1.362003200706682696e-04
 1.362003200706823913e-04
 1.362003200706682154e-04
 4.442396189786609970e-04
 4.442396189786480408e-04
 4.442396189786411561e-04
 8.319977781149517134e-04
 8.319977781149306799e-04
 8.319977781149155011e-04
 1.317835576242115713e-03
 1.317835576242266200e-03
 1.317835576242087090e-03
 1.923021448459188857e-03
 1.923021448459194928e-03
 1.923021448459187772e-03
 2.671426500394472135e-03
 2.671426500394701985e-03
 2.671426500394404480e-03
 3.588698052994770439e-03
 3.588698052994981208e-03
 3.588698052995166390e-03
 4.700704334221536725e-03
 4.700704334221082227e-03
 4.700704334221286057e-03
 6.031073798638425867e-03
 6.031073798638799700e-03
 6.031073798638611483e-03
 7.597777816686857900e-03
 7.597777816686660142e-03
 7.597777816686661877e-03
 9.408960338389650568e-03
 9.408960338390138026e-03
 9.408960338390131087e-03
 1.145859598586181256e-02
 1.145859598586127827e-02
 1.145859598586100245e-02
 1.372296631767029075e-02
 1.372296631767217119e-02
 1.372296631767064810e-02
 1.615918621120718962e-02
 1.615918621120910476e-02
 1.615918621120786269e-02
 1.870684798925342437e-02
 1.870684798925360132e-02
 1.870684798925350417e-02
 </DataArray>
 <DataArray Name="pos.z" type="Float32" NumberOfComponents="1" format="ascii">
 0.000000000000000000e+00
 0.000000000000000000e+00
 0.000000000000000000e+00
 0.000000000000000000e+00
 0.000000000000000000e+00
 0.000000000000000000e+00
 0.000000000000000000e+00
 0.000000000000000000e+00
 0.000000000000000000e+00
 0.000000000000000000e+00
 0.000000000000000000e+00
 0.000000000000000000e+00
 0.000000000000000000e+00
 0.000000000000000000e+00
 0.000000000000000000e+00
 0.000000000000000000e+00
 0.000000000000000000e+00
 0.000000000000000000e+00
 0.000000000000000000e+00
 0.000000000000000000e+00
 0.000000000000000000e+00
 0.000000000000000000e+00
 0.000000000000000000e+00
 0.000000000000000000e+00
 0.000000000000000000e+00
 0.000000000000000000e+00
 0.000000000000000000e+00
 0.000000000000000000e+00
 0.000000000000000000e+00
 0.000000000000000000e+00
 0.000000000000000000e+00
 0.000000000000000000e+00
 0.000000000000000000e+00
 0.000000000000000000e+00
 0.000000000000000000e+00
 0.000000000000000000e+00
 0.000000000000000000e+00
 0.000000000000000000e+00
 0.000000000000000000e+00
 0.000000000000000000e+00
 0.000000000000000000e+00
 0.000000000000000000e+00
 0.000000000000000000e+00
 0.000000000000000000e+00
 0.000000000000000000e+00
 </DataArray>
 <DataArray Name="volume" type="Float32" NumberOfComponents="1" format="ascii">
 2.473403624980401327e-12
 2.473403624980657802e-12
 2.473403624980400520e-12
 1.017835766458123380e-11
 1.017835766458252627e-11
 1.017835766458153430e-11
 2.395257043481486494e-11
 2.395257043481870358e-11
 2.395257043481675195e-11
 4.742778096855797620e-11
 4.742778096856129138e-11
 4.742778096855768539e-11
 8.596348282076675738e-11
 8.596348282076702880e-11
 8.596348282076019163e-11
 1.471556347573756022e-10
 1.471556347573791952e-10
 1.471556347573718799e-10
 2.412245100281417192e-10
 2.412245100281615199e-10
 2.412245100281616750e-10
 3.809905357910226863e-10
 3.809905357910718002e-10
 3.809905357910610985e-10
 5.809909805126165422e-10
 5.809909805126773400e-10
 5.809909805126471479e-10
 8.552130431491640498e-10
 8.552130431492527649e-10
 8.552130431492086142e-10
 1.213097810804631300e-09
 1.213097810804757859e-09
 1.213097810804693339e-09
 1.654102118081156293e-09
 1.654102118081328554e-09
 1.654102118081242940e-09
 2.162209101282333688e-09
 2.162209101282443703e-09
 2.162209101282389937e-09
 2.702914257807874679e-09
 2.702914257807943748e-09
 2.702914257807798578e-09
 3.225439745604915922e-09
 3.225439745604999881e-09
 3.225439745604834031e-09
 </DataArray>
 <DataArray Name="rho" type="Float32" NumberOfComponents="1" format="ascii">
 1.104407504460292871e-01
 1.105389433734889348e-01
 1.106657355320702363e-01
 1.104383639252415339e-01
 1.105345726783038413e-01
 1.106562439019561223e-01
 1.104385541938117249e-01
 1.105351305941564971e-01
 1.106577453249367737e-01
 1.104382418813469047e-01
 1.105348247700772418e-01
 1.106574567069653625e-01
 1.104380371517743181e-01
 1.105346157041666860e-01
 1.106572426315716728e-01
 1.104379458281875559e-01
 1.105345250255321821e-01
 1.106571526924109011e-01
 1.104378594695339943e-01
 1.105344400860602955e-01
 1.106570695371700830e-01
 1.104377502253489213e-01
 1.105343314111290054e-01
 1.106569615896872694e-01
 1.104377144024395185e-01
 1.105342955345629263e-01
 1.106569256426560843e-01
 1.104377875176642543e-01
 1.105343698590346840e-01
 1.106570015027990295e-01
 1.104379072502528203e-01
 1.105344915147881135e-01
 1.106571256030364769e-01
 1.104379579700487113e-01
 1.105345431320956390e-01
 1.106571783604914649e-01
 1.104379852895846087e-01
 1.105345709867428389e-01
 1.106572068943369735e-01
 1.104379941156242023e-01
 1.105345800483657770e-01
 1.106572162549195326e-01
 1.104379916098371106e-01
 1.105345777532664164e-01
 1.106572142264627551e-01
 </DataArray>
 <DataArray Name="vel.x" type="Float32" NumberOfComponents="1" format="ascii">
 1.756750849683835895e+03
 1.755995583210157065e+03
 1.755034488674649310e+03
 1.756751583644069797e+03
 1.755996747364068142e+03
 1.755038291214462333e+03
 1.756751537018762292e+03
 1.755996574729103713e+03
 1.755037716966121025e+03
 1.756751432093820313e+03
 1.755996449047328724e+03
 1.755037559013187547e+03
 1.756751116217261597e+03
 1.755996113357696458e+03
 1.755037197802065066e+03
 1.756750862780295847e+03
 1.755995846242767811e+03
 1.755036913297219826e+03
 1.756750630705294498e+03
 1.755995603770854814e+03
 1.755036657707075847e+03
 1.756750404602304116e+03
 1.755995370690640584e+03
 1.755036415748161744e+03
 1.756750120157298170e+03
 1.755995081488511687e+03
 1.755036120494615034e+03
 1.756749812039965036e+03
 1.755994768483559938e+03
 1.755035801276860866e+03
 1.756749627109904623e+03
 1.755994580057610619e+03
 1.755035608407542895e+03
 1.756749546001736007e+03
 1.755994497222056680e+03
 1.755035523376108358e+03
 1.756749472656434818e+03
 1.755994422479533569e+03
 1.755035446858845717e+03
 1.756749401174177592e+03
 1.755994349798880876e+03
 1.755035372655441734e+03
 1.756749317024911306e+03
 1.755994264078817650e+03
 1.755035284941032614e+03
 </DataArray>
 <DataArray Name="vel.y" type="Float32" NumberOfComponents="1" format="ascii">
 -9.474720753038254339e-02
 -1.649421313771550213e-01
 -3.087471531624444987e-01
 -1.043068374259468111e-03
 -2.531074778403660883e-03
 -6.060455808773323669e-03
 5.379550598786841595e-04
 5.236062485358673703e-04
 4.601020455465057424e-04
 -3.919293941576446413e-05
 -3.375278108962710520e-05
 -2.946052116927064848e-05
 -4.249140484713121195e-04
 -4.460554749672982367e-04
 -4.702416144271279771e-04
 -5.598086205065636294e-04
 -5.828459344574459054e-04
 -6.098715256591811162e-04
 -7.006517498820984168e-04
 -7.117141823240045366e-04
 -7.250317892742077358e-04
 -8.586240805128699145e-04
 -8.676350548931472751e-04
 -8.790877520578556283e-04
 -8.541375447421304572e-04
 -8.627728166617609339e-04
 -8.737535045513322544e-04
 -6.292115155664559185e-04
 -6.352912968345824805e-04
 -6.430199296769509732e-04
 -2.860216219908107084e-04
 -2.877663020747008200e-04
 -2.899831896865696251e-04
 -1.756560243767400201e-04
 -1.761183288867577360e-04
 -1.767054478357320496e-04
 -1.376514179914040494e-04
 -1.378681033316283308e-04
 -1.381419759425944434e-04
 -1.171913574811479921e-04
 -1.175706818934087368e-04
 -1.180524256065349875e-04
 -6.336894094307697481e-05
 -6.350738864208391513e-05
 -6.368318113719955255e-05
 </DataArray>
 <DataArray Name="vel.z" type="Float32" NumberOfComponents="1" format="ascii">
 0.000000000000000000e+00
 0.000000000000000000e+00
 0.000000000000000000e+00
 0.000000000000000000e+00
 0.000000000000000000e+00
 0.000000000000000000e+00
 0.000000000000000000e+00
 0.000000000000000000e+00
 0.000000000000000000e+00
 0.000000000000000000e+00
 0.000000000000000000e+00
 0.000000000000000000e+00
 0.000000000000000000e+00
 0.000000000000000000e+00
 0.000000000000000000e+00
 0.000000000000000000e+00
 0.000000000000000000e+00
 0.000000000000000000e+00
 0.000000000000000000e+00
 0.000000000000000000e+00
 0.000000000000000000e+00
 0.000000000000000000e+00
 0.000000000000000000e+00
 0.000000000000000000e+00
 0.000000000000000000e+00
 0.000000000000000000e+00
 0.000000000000000000e+00
 0.000000000000000000e+00
 0.000000000000000000e+00
 0.000000000000000000e+00
 0.000000000000000000e+00
 0.000000000000000000e+00
 0.000000000000000000e+00
 0.000000000000000000e+00
 0.000000000000000000e+00
 0.000000000000000000e+00
 0.000000000000000000e+00
 0.000000000000000000e+00
 0.000000000000000000e+00
 0.000000000000000000e+00
 0.000000000000000000e+00
 0.000000000000000000e+00
 0.000000000000000000e+00
 0.000000000000000000e+00
 0.000000000000000000e+00
 </DataArray>
 <DataArray Name="p" type="Float32" NumberOfComponents="1" format="ascii">
 9.325338693550413154e+03
 9.359647289391858067e+03
 9.397251960908140973e+03
 9.325110840862756959e+03
 9.359217702288422515e+03
 9.396249647621280019e+03
 9.325150123938872639e+03
 9.359298565624592811e+03
 9.396435023334208381e+03
 9.325135280443884767e+03
 9.359284940124325658e+03
 9.396423981290179654e+03
 9.325122410711062912e+03
 9.359271824815923537e+03
 9.396410593794846136e+03
 9.325116952022610349e+03
 9.359266596818875769e+03
 9.396405617514470578e+03
 9.325109678569162497e+03
 9.359259572941600709e+03
 9.396398885254438937e+03
 9.325099815978357583e+03
 9.359249816889609065e+03
 9.396389259481742556e+03
 9.325098255161323323e+03
 9.359248304440550783e+03
 9.396387796831964806e+03
 9.325108284096570060e+03
 9.359258553977353586e+03
 9.396398300636779823e+03
 9.325122961900591690e+03
 9.359273535881677162e+03
 9.396413637617295535e+03
 9.325129230271797496e+03
 9.359279945355265227e+03
 9.396420212087339678e+03
 9.325132842705961593e+03
 9.359283646388677880e+03
 9.396424016042761650e+03
 9.325134772800814972e+03
 9.359285632593007904e+03
 9.396426065360647044e+03
 9.325135141748745809e+03
 9.359286045723200004e+03
 9.396426528672513086e+03
 </DataArray>
 <DataArray Name="a" type="Float32" NumberOfComponents="1" format="ascii">
 3.436633438250204904e+02
 3.441396295233892033e+02
 3.446302049123731308e+02
 3.436628608234339026e+02
 3.441385409034472218e+02
 3.446266227542000706e+02
 3.436632865488867310e+02
 3.441391559958368020e+02
 3.446276788982451080e+02
 3.436634979214686041e+02
 3.441393804484630436e+02
 3.446279245928579371e+02
 3.436635789166654149e+02
 3.441394643592431635e+02
 3.446280120018114985e+02
 3.436636202190782114e+02
 3.441395091790457172e+02
 3.446280605516456603e+02
 3.436636205576723455e+02
 3.441395122557684090e+02
 3.446280665514889847e+02
 3.436636088539015645e+02
 3.441395021166141532e+02
 3.446280581682669890e+02
 3.436636356984641338e+02
 3.441395300204011392e+02
 3.446280871752305188e+02
 3.436637063909558378e+02
 3.441396023953782901e+02
 3.446281612932662028e+02
 3.436637901501184160e+02
 3.441396880275307240e+02
 3.446282488562887920e+02
 3.436638265612584746e+02
 3.441397253262833829e+02
 3.446282870738838824e+02
 3.436638505021560945e+02
 3.441397498855327513e+02
 3.446283122716631624e+02
 3.436638722281589367e+02
 3.441397721842407691e+02
 3.446283351604980680e+02
 3.436638828731174726e+02
 3.441397832969664705e+02
 3.446283467567993171e+02
 </DataArray>
 <DataArray Name="mu" type="Float32" NumberOfComponents="1" format="ascii">
 1.810968866282172717e-05
 1.814895449027834951e-05
 1.818940560726339123e-05
 1.810964884681218491e-05
 1.814886473468763339e-05
 1.818911020842371449e-05
 1.810968394129010338e-05
 1.814891544841591448e-05
 1.818919730217102528e-05
 1.810970136569172966e-05
 1.814893395430454913e-05
 1.818921756310966676e-05
 1.810970804249390043e-05
 1.814894087266265084e-05
 1.818922477119427677e-05
 1.810971144723957663e-05
 1.814894456800965436e-05
 1.818922877480383071e-05
 1.810971147515142305e-05
 1.814894482168231707e-05
 1.818922926957442686e-05
 1.810971051035638638e-05
 1.814894398571937554e-05
 1.818922857826108728e-05
 1.810971272327575507e-05
 1.814894628635818098e-05
 1.818923097028897435e-05
 1.810971855077940263e-05
 1.814895225360140411e-05
 1.818923708235279844e-05
 1.810972545542837434e-05
 1.814895931388546655e-05
 1.818924430314317709e-05
 1.810972845696441933e-05
 1.814896238912984427e-05
 1.818924745471608572e-05
 1.810973043052164193e-05
 1.814896441401508829e-05
 1.818924953262388800e-05
 1.810973222149499706e-05
 1.814896625252101185e-05
 1.818925142012710664e-05
 1.810973309900742881e-05
 1.814896716875400641e-05
 1.818925237640363799e-05
 </DataArray>
 <DataArray Name="k" type="Float32" NumberOfComponents="1" format="ascii">
 2.572445455561483962e-02
 2.578204950116646382e-02
 2.584138170141462437e-02
 2.572439615294001142e-02
 2.578191784959155824e-02
 2.584094842558245023e-02
 2.572444763000686363e-02
 2.578199223540104945e-02
 2.584107617021971781e-02
 2.572447318836033545e-02
 2.578201937944125249e-02
 2.584110588792361968e-02
 2.572448298198611386e-02
 2.578202952714031201e-02
 2.584111646037173804e-02
 2.572448797611414165e-02
 2.578203494739592788e-02
 2.584112233266049052e-02
 2.572448801705562796e-02
 2.578203531947752952e-02
 2.584112305836457762e-02
 2.572448660188092137e-02
 2.578203409330505000e-02
 2.584112204438169733e-02
 2.572448984782162856e-02
 2.578203746783262751e-02
 2.584112555288529608e-02
 2.572449839568451829e-02
 2.578204622045679809e-02
 2.584113451774639608e-02
 2.572450852351900255e-02
 2.578205657632971076e-02
 2.584114510883059324e-02
 2.572451292621352054e-02
 2.578206108703205018e-02
 2.584114973139575375e-02
 2.572451582105448470e-02
 2.578206405709021140e-02
 2.584115277916411782e-02
 2.572451844807895419e-02
 2.578206675377115592e-02
 2.584115554765679945e-02
 2.572451973522627000e-02
 2.578206809768203434e-02
 2.584115695027406831e-02
 </DataArray>
 <DataArray Name="mu_t" type="Float32" NumberOfComponents="1" format="ascii">
 0.000000000000000000e+00
 0.000000000000000000e+00
 0.000000000000000000e+00
 0.000000000000000000e+00
 0.000000000000000000e+00
 0.000000000000000000e+00
 0.000000000000000000e+00
 0.000000000000000000e+00
 0.000000000000000000e+00
 0.000000000000000000e+00
 0.000000000000000000e+00
 0.000000000000000000e+00
 0.000000000000000000e+00
 0.000000000000000000e+00
 0.000000000000000000e+00
 0.000000000000000000e+00
 0.000000000000000000e+00
 0.000000000000000000e+00
 0.000000000000000000e+00
 0.000000000000000000e+00
 0.000000000000000000e+00
 0.000000000000000000e+00
 0.000000000000000000e+00
 0.000000000000000000e+00
 0.000000000000000000e+00
 0.000000000000000000e+00
 0.000000000000000000e+00
 0.000000000000000000e+00
 0.000000000000000000e+00
 0.000000000000000000e+00
 0.000000000000000000e+00
 0.000000000000000000e+00
 0.000000000000000000e+00
 0.000000000000000000e+00
 0.000000000000000000e+00
 0.000000000000000000e+00
 0.000000000000000000e+00
 0.000000000000000000e+00
 0.000000000000000000e+00
 0.000000000000000000e+00
 0.000000000000000000e+00
 0.000000000000000000e+00
 0.000000000000000000e+00
 0.000000000000000000e+00
 0.000000000000000000e+00
 </DataArray>
 <DataArray Name="k_t" type="Float32" NumberOfComponents="1" format="ascii">
 0.000000000000000000e+00
 0.000000000000000000e+00
 0.000000000000000000e+00
 0.000000000000000000e+00
 0.000000000000000000e+00
 0.000000000000000000e+00
 0.000000000000000000e+00
 0.000000000000000000e+00
 0.000000000000000000e+00
 0.000000000000000000e+00
 0.000000000000000000e+00
 0.000000000000000000e+00
 0.000000000000000000e+00
 0.000000000000000000e+00
 0.000000000000000000e+00
 0.000000000000000000e+00
 0.000000000000000000e+00
 0.000000000000000000e+00
 0.000000000000000000e+00
 0.000000000000000000e+00
 0.000000000000000000e+00
 0.000000000000000000e+00
 0.000000000000000000e+00
 0.000000000000000000e+00
 0.000000000000000000e+00
 0.000000000000000000e+00
 0.000000000000000000e+00
 0.000000000000000000e+00
 0.000000000000000000e+00
 0.000000000000000000e+00
 0.000000000000000000e+00
 0.000000000000000000e+00
 0.000000000000000000e+00
 0.000000000000000000e+00
 0.000000000000000000e+00
 0.000000000000000000e+00
 0.000000000000000000e+00
 0.000000000000000000e+00
 0.000000000000000000e+00
 0.000000000000000000e+00
 0.000000000000000000e+00
 0.000000000000000000e+00
 0.000000000000000000e+00
 0.000000000000000000e+00
 0.000000000000000000e+00
 </DataArray>
 <DataArray Name="S" type="Float32" NumberOfComponents="1" format="ascii">
 1.000000000000000000e+00
 1.000000000000000000e+00
 1.000000000000000000e+00
 0.000000000000000000e+00
 0.000000000000000000e+00
 0.000000000000000000e+00
 0.000000000000000000e+00
 0.000000000000000000e+00
 0.000000000000000000e+00
 0.000000000000000000e+00
 0.000000000000000000e+00
 0.000000000000000000e+00
 0.000000000000000000e+00
 0.000000000000000000e+00
 0.000000000000000000e+00
 0.000000000000000000e+00
 0.000000000000000000e+00
 0.000000000000000000e+00
 0.000000000000000000e+00
 0.000000000000000000e+00
 0.000000000000000000e+00
 0.000000000000000000e+00
 0.000000000000000000e+00
 0.000000000000000000e+00
 0.000000000000000000e+00
 0.000000000000000000e+00
 0.000000000000000000e+00
 0.000000000000000000e+00
 0.000000000000000000e+00
 0.000000000000000000e+00
 0.000000000000000000e+00
 0.000000000000000000e+00
 0.000000000000000000e+00
 0.000000000000000000e+00
 0.000000000000000000e+00
 0.000000000000000000e+00
 0.000000000000000000e+00
 0.000000000000000000e+00
 0.000000000000000000e+00
 0.000000000000000000e+00
 0.000000000000000000e+00
 0.000000000000000000e+00
 0.000000000000000000e+00
 0.000000000000000000e+00
 0.000000000000000000e+00
 </DataArray>
 <DataArray Name="tke" type="Float32" NumberOfComponents="1" format="ascii">
 0.000000000000000000e+00
 0.000000000000000000e+00
 0.000000000000000000e+00
 0.000000000000000000e+00
 0.000000000000000000e+00
 0.000000000000000000e+00
 0.000000000000000000e+00
 0.000000000000000000e+00
 0.000000000000000000e+00
 0.000000000000000000e+00
 0.000000000000000000e+00
 0.000000000000000000e+00
 0.000000000000000000e+00
 0.000000000000000000e+00
 0.000000000000000000e+00
 0.000000000000000000e+00
 0.000000000000000000e+00
 0.000000000000000000e+00
 0.000000000000000000e+00
 0.000000000000000000e+00
 0.000000000000000000e+00
 0.000000000000000000e+00
 0.000000000000000000e+00
 0.000000000000000000e+00
 0.000000000000000000e+00
 0.000000000000000000e+00
 0.000000000000000000e+00
 0.000000000000000000e+00
 0.000000000000000000e+00
 0.000000000000000000e+00
 0.000000000000000000e+00
 0.000000000000000000e+00
 0.000000000000000000e+00
 0.000000000000000000e+00
 0.000000000000000000e+00
 0.000000000000000000e+00
 0.000000000000000000e+00
 0.000000000000000000e+00
 0.000000000000000000e+00
 0.000000000000000000e+00
 0.000000000000000000e+00
 0.000000000000000000e+00
 0.000000000000000000e+00
 0.000000000000000000e+00
 0.000000000000000000e+00
 </DataArray>
 <DataArray Name="omega" type="Float32" NumberOfComponents="1" format="ascii">
 1.000000000000000000e+00
 1.000000000000000000e+00
 1.000000000000000000e+00
 1.000000000000000000e+00
 1.000000000000000000e+00
 1.000000000000000000e+00
 1.000000000000000000e+00
 1.000000000000000000e+00
 1.000000000000000000e+00
 1.000000000000000000e+00
 1.000000000000000000e+00
 1.000000000000000000e+00
 1.000000000000000000e+00
 1.000000000000000000e+00
 1.000000000000000000e+00
 1.000000000000000000e+00
 1.000000000000000000e+00
 1.000000000000000000e+00
 1.000000000000000000e+00
 1.000000000000000000e+00
 1.000000000000000000e+00
 1.000000000000000000e+00
 1.000000000000000000e+00
 1.000000000000000000e+00
 1.000000000000000000e+00
 1.000000000000000000e+00
 1.000000000000000000e+00
 1.000000000000000000e+00
 1.000000000000000000e+00
 1.000000000000000000e+00
 1.000000000000000000e+00
 1.000000000000000000e+00
 1.000000000000000000e+00
 1.000000000000000000e+00
 1.000000000000000000e+00
 1.000000000000000000e+00
 1.000000000000000000e+00
 1.000000000000000000e+00
 1.000000000000000000e+00
 1.000000000000000000e+00
 1.000000000000000000e+00
 1.000000000000000000e+00
 1.000000000000000000e+00
 1.000000000000000000e+00
 1.000000000000000000e+00
 </DataArray>
 <DataArray Name="massf[0]-H2" type="Float32" NumberOfComponents="1" format="ascii">
 0.000000000000000000e+00
 0.000000000000000000e+00
 0.000000000000000000e+00
 0.000000000000000000e+00
 0.000000000000000000e+00
 0.000000000000000000e+00
 0.000000000000000000e+00
 0.000000000000000000e+00
 0.000000000000000000e+00
 0.000000000000000000e+00
 0.000000000000000000e+00
 0.000000000000000000e+00
 0.000000000000000000e+00
 0.000000000000000000e+00
 0.000000000000000000e+00
 0.000000000000000000e+00
 0.000000000000000000e+00
 0.000000000000000000e+00
 0.000000000000000000e+00
 0.000000000000000000e+00
 0.000000000000000000e+00
 0.000000000000000000e+00
 0.000000000000000000e+00
 0.000000000000000000e+00
 0.000000000000000000e+00
 0.000000000000000000e+00
 0.000000000000000000e+00
 0.000000000000000000e+00
 0.000000000000000000e+00
 0.000000000000000000e+00
 0.000000000000000000e+00
 0.000000000000000000e+00
 0.000000000000000000e+00
 0.000000000000000000e+00
 0.000000000000000000e+00
 0.000000000000000000e+00
 0.000000000000000000e+00
 0.000000000000000000e+00
 0.000000000000000000e+00
 0.000000000000000000e+00
 0.000000000000000000e+00
 0.000000000000000000e+00
 0.000000000000000000e+00
 0.000000000000000000e+00
 0.000000000000000000e+00
 </DataArray>
 <DataArray Name="massf[1]-O2" type="Float32" NumberOfComponents="1" format="ascii">
 2.200000000000000289e-01
 2.200000000000000566e-01
 2.200000000000000566e-01
 2.200000000000002787e-01
 2.200000000000002509e-01
 2.200000000000003342e-01
 2.199999999999999178e-01
 2.199999999999999178e-01
 2.199999999999999178e-01
 2.199999999999996403e-01
 2.199999999999995848e-01
 2.199999999999996125e-01
 2.199999999999998346e-01
 2.199999999999998623e-01
 2.199999999999998068e-01
 2.199999999999998346e-01
 2.199999999999998346e-01
 2.199999999999998623e-01
 2.200000000000001399e-01
 2.200000000000001676e-01
 2.200000000000001954e-01
 2.199999999999998901e-01
 2.199999999999999456e-01
 2.199999999999998901e-01
 2.199999999999997513e-01
 2.199999999999997513e-01
 2.199999999999996680e-01
 2.199999999999996403e-01
 2.199999999999996403e-01
 2.199999999999996680e-01
 2.199999999999996958e-01
 2.199999999999997791e-01
 2.199999999999998068e-01
 2.200000000000000566e-01
 2.200000000000000844e-01
 2.200000000000001121e-01