<VTKFile type="UnstructuredGrid" byte_order="BigEndian">
<UnstructuredGrid><Piece NumberOfPoints="4991" NumberOfCells="4800">
<Points>
 <DataArray type="Float32" NumberOfComponents="3" format="ascii">
 3.020000085234642029e-02 0.000000000000000000e+00 0.000000000000000000e+00
 3.027995303273200989e-02 0.000000000000000000e+00 0.000000000000000000e+00
 3.036169335246086121e-02 0.000000000000000000e+00 0.000000000000000000e+00
 3.044525347650051117e-02 0.000000000000000000e+00 0.000000000000000000e+00
 3.053067624568939209e-02 0.000000000000000000e+00 0.000000000000000000e+00
 3.061799891293048859e-02 0.000000000000000000e+00 0.000000000000000000e+00
 3.070726059377193451e-02 0.000000000000000000e+00 0.000000000000000000e+00
 3.079850412905216217e-02 0.000000000000000000e+00 0.000000000000000000e+00
 3.089176863431930542e-02 0.000000000000000000e+00 0.000000000000000000e+00
 3.098709508776664734e-02 0.000000000000000000e+00 0.000000000000000000e+00
 3.108453005552291870e-02 0.000000000000000000e+00 0.000000000000000000e+00
 3.118411451578140259e-02 0.000000000000000000e+00 0.000000000000000000e+00
 3.128589317202568054e-02 0.000000000000000000e+00 0.000000000000000000e+00
 3.138991072773933411e-02 0.000000000000000000e+00 0.000000000000000000e+00
 3.149621188640594482e-02 0.000000000000000000e+00 0.000000000000000000e+00
 3.160484507679939270e-02 0.000000000000000000e+00 0.000000000000000000e+00
 3.171585872769355774e-02 0.000000000000000000e+00 0.000000000000000000e+00
 3.182929754257202148e-02 0.000000000000000000e+00 0.000000000000000000e+00
 3.194520995020866394e-02 0.000000000000000000e+00 0.000000000000000000e+00
 3.206364810466766357e-02 0.000000000000000000e+00 0.000000000000000000e+00
 3.218466416001319885e-02 0.000000000000000000e+00 0.000000000000000000e+00
 3.230830654501914978e-02 0.000000000000000000e+00 0.000000000000000000e+00
 3.243462741374969482e-02 0.000000000000000000e+00 0.000000000000000000e+00
 3.256368264555931091e-02 0.000000000000000000e+00 0.000000000000000000e+00
 3.269552066922187805e-02 0.000000000000000000e+00 0.000000000000000000e+00
 3.283020108938217163e-02 0.000000000000000000e+00 0.000000000000000000e+00
 3.296777606010437012e-02 0.000000000000000000e+00 0.000000000000000000e+00
 3.310830146074295044e-02 0.000000000000000000e+00 0.000000000000000000e+00
 3.325183689594268799e-02 0.000000000000000000e+00 0.000000000000000000e+00
 3.339843824505805969e-02 0.000000000000000000e+00 0.000000000000000000e+00
 3.354816511273384094e-02 0.000000000000000000e+00 0.000000000000000000e+00
 3.370107710361480713e-02 0.000000000000000000e+00 0.000000000000000000e+00
 3.385723009705543518e-02 0.000000000000000000e+00 0.000000000000000000e+00
 3.401669114828109741e-02 0.000000000000000000e+00 0.000000000000000000e+00
 3.417951613664627075e-02 0.000000000000000000e+00 0.000000000000000000e+00
 3.434577584266662598e-02 0.000000000000000000e+00 0.000000000000000000e+00
 3.451552614569664001e-02 0.000000000000000000e+00 0.000000000000000000e+00
 3.468883037567138672e-02 0.000000000000000000e+00 0.000000000000000000e+00
 3.486575931310653687e-02 0.000000000000000000e+00 0.000000000000000000e+00
 3.504637628793716431e-02 0.000000000000000000e+00 0.000000000000000000e+00
 3.523074463009834290e-02 0.000000000000000000e+00 0.000000000000000000e+00
 3.541893512010574341e-02 0.000000000000000000e+00 0.000000000000000000e+00
 3.561101481318473816e-02 0.000000000000000000e+00 0.000000000000000000e+00
 3.580705076456069946e-02 0.000000000000000000e+00 0.000000000000000000e+00
 3.600711375474929810e-02 0.000000000000000000e+00 0.000000000000000000e+00
 3.621127083897590637e-02 0.000000000000000000e+00 0.000000000000000000e+00
 3.641959279775619507e-02 0.000000000000000000e+00 0.000000000000000000e+00
 3.663215413689613342e-02 0.000000000000000000e+00 0.000000000000000000e+00
 3.684902191162109375e-02 0.000000000000000000e+00 0.000000000000000000e+00
 3.707027435302734375e-02 0.000000000000000000e+00 0.000000000000000000e+00
 3.729597479104995728e-02 0.000000000000000000e+00 0.000000000000000000e+00
 3.752620518207550049e-02 0.000000000000000000e+00 0.000000000000000000e+00
 3.776103630661964417e-02 0.000000000000000000e+00 0.000000000000000000e+00
 3.800054267048835754e-02 0.000000000000000000e+00 0.000000000000000000e+00
 3.824479505419731140e-02 0.000000000000000000e+00 0.000000000000000000e+00
 3.849387168884277344e-02 0.000000000000000000e+00 0.000000000000000000e+00
 3.874784708023071289e-02 0.000000000000000000e+00 0.000000000000000000e+00
 3.900679945945739746e-02 0.000000000000000000e+00 0.000000000000000000e+00
 3.927079960703849792e-02 0.000000000000000000e+00 0.000000000000000000e+00
 3.953992947936058044e-02 0.000000000000000000e+00 0.000000000000000000e+00
 3.981425613164901733e-02 0.000000000000000000e+00 0.000000000000000000e+00
 4.009386524558067322e-02 0.000000000000000000e+00 0.000000000000000000e+00
 4.037883132696151733e-02 0.000000000000000000e+00 0.000000000000000000e+00
 4.066922515630722046e-02 0.000000000000000000e+00 0.000000000000000000e+00
 4.096512869000434875e-02 0.000000000000000000e+00 0.000000000000000000e+00
 4.126661643385887146e-02 0.000000000000000000e+00 0.000000000000000000e+00
 4.157376289367675781e-02 0.000000000000000000e+00 0.000000000000000000e+00
 4.188664630055427551e-02 0.000000000000000000e+00 0.000000000000000000e+00
 4.220534116029739380e-02 0.000000000000000000e+00 0.000000000000000000e+00
 4.252992197871208191e-02 0.000000000000000000e+00 0.000000000000000000e+00
 4.286046326160430908e-02 0.000000000000000000e+00 0.000000000000000000e+00
 4.319704324007034302e-02 0.000000000000000000e+00 0.000000000000000000e+00
 4.353972896933555603e-02 0.000000000000000000e+00 0.000000000000000000e+00
 4.388859868049621582e-02 0.000000000000000000e+00 0.000000000000000000e+00
 4.424372315406799316e-02 0.000000000000000000e+00 0.000000000000000000e+00
 4.460517317056655884e-02 0.000000000000000000e+00 0.000000000000000000e+00
 4.497301951050758362e-02 0.000000000000000000e+00 0.000000000000000000e+00
 4.534733295440673828e-02 0.000000000000000000e+00 0.000000000000000000e+00
 4.572818055748939514e-02 0.000000000000000000e+00 0.000000000000000000e+00
 4.611562937498092651e-02 0.000000000000000000e+00 0.000000000000000000e+00
 4.650975018739700317e-02 0.000000000000000000e+00 0.000000000000000000e+00
 4.691059887409210205e-02 0.000000000000000000e+00 0.000000000000000000e+00
 4.731824621558189392e-02 0.000000000000000000e+00 0.000000000000000000e+00
 4.773275181651115417e-02 0.000000000000000000e+00 0.000000000000000000e+00
 4.815417528152465820e-02 0.000000000000000000e+00 0.000000000000000000e+00
 4.858257248997688293e-02 0.000000000000000000e+00 0.000000000000000000e+00
 4.901800677180290222e-02 0.000000000000000000e+00 0.000000000000000000e+00
 4.946052283048629761e-02 0.000000000000000000e+00 0.000000000000000000e+00
 4.991018027067184448e-02 0.000000000000000000e+00 0.000000000000000000e+00
 5.036703124642372131e-02 0.000000000000000000e+00 0.000000000000000000e+00
 5.083111301064491272e-02 0.000000000000000000e+00 0.000000000000000000e+00
 5.130248144268989563e-02 0.000000000000000000e+00 0.000000000000000000e+00
 5.178117379546165466e-02 0.000000000000000000e+00 0.000000000000000000e+00
 5.226723477244377136e-02 0.000000000000000000e+00 0.000000000000000000e+00
 5.276069417595863342e-02 0.000000000000000000e+00 0.000000000000000000e+00
 5.326159298419952393e-02 0.000000000000000000e+00 0.000000000000000000e+00
 5.376996099948883057e-02 0.000000000000000000e+00 0.000000000000000000e+00
 5.428582802414894104e-02 0.000000000000000000e+00 0.000000000000000000e+00
 5.480921268463134766e-02 0.000000000000000000e+00 0.000000000000000000e+00
 5.534014478325843811e-02 0.000000000000000000e+00 0.000000000000000000e+00
 5.587863922119140625e-02 0.000000000000000000e+00 0.000000000000000000e+00
 5.642471089959144592e-02 0.000000000000000000e+00 0.000000000000000000e+00
 5.697836726903915405e-02 0.000000000000000000e+00 0.000000000000000000e+00
 5.753961950540542603e-02 0.000000000000000000e+00 0.000000000000000000e+00
 5.810847133398056030e-02 0.000000000000000000e+00 0.000000000000000000e+00
 5.868491902947425842e-02 0.000000000000000000e+00 0.000000000000000000e+00
 5.926895514130592346e-02 0.000000000000000000e+00 0.000000000000000000e+00
 5.986057594418525696e-02 0.000000000000000000e+00 0.000000000000000000e+00
 6.045976281166076660e-02 0.000000000000000000e+00 0.000000000000000000e+00
 6.106650084257125854e-02 0.000000000000000000e+00 0.000000000000000000e+00
 6.168076768517494202e-02 0.000000000000000000e+00 0.000000000000000000e+00
 6.230253353714942932e-02 0.000000000000000000e+00 0.000000000000000000e+00
 6.293176114559173584e-02 0.000000000000000000e+00 0.000000000000000000e+00
 6.356842815876007080e-02 0.000000000000000000e+00 0.000000000000000000e+00
 6.421247124671936035e-02 0.000000000000000000e+00 0.000000000000000000e+00
 6.486386060714721680e-02 0.000000000000000000e+00 0.000000000000000000e+00
 6.552254408597946167e-02 0.000000000000000000e+00 0.000000000000000000e+00
 6.618844717741012573e-02 0.000000000000000000e+00 0.000000000000000000e+00
 6.686152517795562744e-02 0.000000000000000000e+00 0.000000000000000000e+00
 6.754170358180999756e-02 0.000000000000000000e+00 0.000000000000000000e+00
 6.822890788316726685e-02 0.000000000000000000e+00 0.000000000000000000e+00
 6.892306357622146606e-02 0.000000000000000000e+00 0.000000000000000000e+00
 6.962408125400543213e-02 0.000000000000000000e+00 0.000000000000000000e+00
 7.033187896013259888e-02 0.000000000000000000e+00 0.000000000000000000e+00
 7.104635238647460938e-02 0.000000000000000000e+00 0.000000000000000000e+00
 7.176741212606430054e-02 0.000000000000000000e+00 0.000000000000000000e+00
 7.249493896961212158e-02 0.000000000000000000e+00 0.000000000000000000e+00
 7.322883605957031250e-02 0.000000000000000000e+00 0.000000000000000000e+00
[...]
<CellData>
 <DataArray Name="pos.x" type="Float32" NumberOfComponents="1" format="ascii">
 3.023997687408707530e-02
 3.032082309519184421e-02
 3.040347310476908954e-02
 3.048796493583582831e-02
 3.057433732106488999e-02
 3.066262970084590936e-02
 3.075288223119364978e-02
 3.084513579148718057e-02
 3.093943199202317529e-02
 3.103581318136561240e-02
 3.113432245347328570e-02
 3.123500365458590708e-02
 3.133790138984859225e-02
 3.144306102965384320e-02
 3.155052871567913531e-02
 3.166035136659733212e-02
 3.177257668343627661e-02
 3.188725315456308190e-02
 3.200443006026744419e-02
 3.212415747691763773e-02
 3.224648628066170697e-02
 3.237146815064528838e-02
 3.249915557171678682e-02
 3.262960183658936142e-02
 3.276286104742823224e-02
 3.289898811683081292e-02
 3.303803876816611973e-02
 3.318006953523885277e-02
 3.332513776124250426e-02
 3.347330159696483565e-02
 3.362461999820809400e-02
 3.377915272238492250e-02
 3.393696032425062153e-02
 3.409810415073066814e-02
 3.426264633480184674e-02
 3.443064978838419887e-02
 3.460217819420027124e-02
 3.477729599655679515e-02
 3.495606839100356966e-02
 3.513856131282314110e-02
 3.532484142430415697e-02
 3.551497610075045330e-02
 3.570903341517754626e-02
 3.590708212164717833e-02
 3.610919163719016750e-02
 3.631543202226754363e-02
 3.652587395971911011e-02
 3.674058873214871429e-02
 3.695964819769499005e-02
 3.718312476413633549e-02
 3.741109136127904189e-02
 3.764362141157731600e-02
 3.788078879893444495e-02
 3.812266783563481032e-02
 3.836933322735674307e-02
 3.862086003621716113e-02
 3.887732364179979916e-02
 3.913879970011990839e-02
 3.940536410047927596e-02
 3.967709292016745326e-02
 3.995406237696629698e-02
 4.023634877941684174e-02
 4.052402847480995191e-02
 4.081717779486419839e-02
 4.111587299905731380e-02
 4.142019021558032699e-02
 4.173020537988645501e-02
 4.204599417081065355e-02
 4.236763194423915496e-02
 4.269519366431225038e-02
 4.302875383214820049e-02
 4.336838641208043410e-02
 4.371416475540537694e-02
 4.406616152164356121e-02
 4.442444859732171125e-02
 4.478909701229019658e-02
 4.516017685359592637e-02
 4.553775717693751834e-02
 4.592190591573638847e-02
 4.631268978786484691e-02
 4.671017420007953641e-02
 4.711442315021666105e-02
 4.752549912721353020e-02
 4.794346300902939395e-02
 4.836837395854748367e-02
 4.880028931754895605e-02
 4.923926449885902834e-02
 4.968535287677477985e-02
 5.013860567589446815e-02
 5.059907185847738187e-02
 5.106679801047409040e-02
 5.154182822637674161e-02
 5.202420399304982790e-02
 5.251396407271201328e-02
 5.301114438525013350e-02
 5.351577789005741020e-02
 5.402789446759768965e-02
 5.454752080090844585e-02
 5.507468025726530714e-02
 5.560939277024103122e-02
 5.615167472240148450e-02
 5.670153882889077124e-02
 5.725899402216718531e-02
 5.782404533815978243e-02
 5.839669380412423894e-02
 5.897693632848415024e-02
 5.956476559295129092e-02
 6.016016994722477029e-02
 6.076313330657470702e-02
 6.137363505262151409e-02
 6.199164993762580622e-02
 6.261714799260695297e-02
 6.325009443961136790e-02
 6.389044960845230436e-02
 6.453816885824339988e-02
 6.519320250404729566e-02
 6.585549574895860347e-02
 6.652498862193718943e-02
 6.720161592170302567e-02
 6.788530716699821277e-02
 6.857598655351426764e-02
 6.927357291777433423e-02
 6.997797970825025970e-02
 7.068911496398222472e-02
 7.140688130095704245e-02
 7.213117590648591981e-02
 7.286189054180777780e-02
 7.359891155312658917e-02
 7.434211989127337272e-02
 7.509139114016351313e-02
 7.584659555419961952e-02
 7.660759810474743192e-02
 7.737425853578974722e-02
 7.814643142883845317e-02
 7.892396627715954349e-02
 7.970670756934028489e-02
 8.049449488219975746e-02
 8.128716298301703891e-02
 8.208454194102275669e-02
 8.288645724807053305e-02
 8.369272994837625990e-02
 8.450317677718358067e-02
 8.531761030818424407e-02
 8.613583910949308697e-02
 8.695766790794798307e-02
 8.778289776147607526e-02
 8.861132623923971552e-02
 8.944274760924779410e-02
 9.027695303309095365e-02
 9.111373076743348176e-02
 9.195286637186989021e-02
 9.279414292273051312e-02
 9.363734123239783602e-02
 9.448224007367536648e-02
 9.532861640873033227e-02
 9.617624562211513073e-02
 9.702490175735636879e-02
 9.787435775658620551e-02
 9.872438570267946800e-02
 9.957475706334971421e-02
 3.023997687408707530e-02
 3.032082309519184421e-02
 3.040347310476908954e-02
 3.048796493583582831e-02
 3.057433732106489346e-02
 3.066262970084591283e-02
 3.075288223119365325e-02
 3.084513579148718057e-02
 3.093943199202317529e-02
 3.103581318136561240e-02
 3.113432245347328223e-02
 3.123500365458590708e-02
 3.133790138984859225e-02
 3.144306102965384320e-02
 3.155052871567913531e-02
 3.166035136659733212e-02
 3.177257668343628355e-02
 3.188725315456308190e-02
 3.200443006026744419e-02
 3.212415747691764467e-02
 3.224648628066170697e-02
 3.237146815064528838e-02
 3.249915557171678682e-02
 3.262960183658936142e-02
 3.276286104742823224e-02
 3.289898811683081292e-02
 3.303803876816611973e-02
 3.318006953523885277e-02
 3.332513776124250426e-02
 3.347330159696483565e-02
 3.362461999820808706e-02
 3.377915272238491556e-02
 3.393696032425061460e-02
 3.409810415073066814e-02
 3.426264633480184674e-02
 3.443064978838420581e-02
 3.460217819420027818e-02
 3.477729599655679515e-02
 3.495606839100356966e-02
 3.513856131282314110e-02
 3.532484142430415697e-02
 3.551497610075045330e-02
 3.570903341517754626e-02
 3.590708212164717139e-02
 3.610919163719016056e-02
 3.631543202226754363e-02
 3.652587395971911011e-02
 3.674058873214872123e-02
 3.695964819769499005e-02
 3.718312476413633549e-02
 3.741109136127904883e-02
 3.764362141157731600e-02
 3.788078879893444495e-02
 3.812266783563481726e-02
 3.836933322735674307e-02
 3.862086003621716113e-02
 3.887732364179979916e-02
 3.913879970011990839e-02
 3.940536410047927596e-02
 3.967709292016745326e-02
 3.995406237696629698e-02
 4.023634877941684174e-02
 4.052402847480994497e-02
 4.081717779486419839e-02
 4.111587299905731380e-02
 4.142019021558032699e-02
 4.173020537988646195e-02
 4.204599417081066048e-02
 4.236763194423915496e-02
 4.269519366431225038e-02
 4.302875383214820049e-02
 4.336838641208042022e-02
 4.371416475540537694e-02
 4.406616152164356121e-02
 4.442444859732171125e-02
 4.478909701229021045e-02
 4.516017685359592637e-02
 4.553775717693751834e-02
 4.592190591573638847e-02
 4.631268978786484691e-02
 4.671017420007953641e-02
 4.711442315021666105e-02
 4.752549912721353020e-02
 4.794346300902939395e-02
 4.836837395854748367e-02
 4.880028931754895605e-02
 4.923926449885902834e-02
 4.968535287677477985e-02
 5.013860567589446815e-02
 5.059907185847738187e-02
 5.106679801047409040e-02
 5.154182822637674161e-02
 5.202420399304984178e-02
 5.251396407271201328e-02
 5.301114438525013350e-02
 5.351577789005741020e-02
 5.402789446759768965e-02
 5.454752080090844585e-02
 5.507468025726530714e-02
 5.560939277024103122e-02
 5.615167472240148450e-02
 5.670153882889077124e-02
 5.725899402216717837e-02
 5.782404533815978243e-02
 5.839669380412423894e-02
 5.897693632848415024e-02
 5.956476559295129786e-02
 6.016016994722477723e-02
 6.076313330657470702e-02
 6.137363505262151409e-02
 6.199164993762580622e-02
 6.261714799260695297e-02
 6.325009443961136790e-02
 6.389044960845230436e-02
 6.453816885824339988e-02
 6.519320250404729566e-02
 6.585549574895860347e-02
 6.652498862193718943e-02
 6.720161592170303955e-02
 6.788530716699819889e-02
 6.857598655351426764e-02
 6.927357291777434811e-02
 6.997797970825025970e-02
 7.068911496398222472e-02
 7.140688130095704245e-02
 7.213117590648593369e-02
 7.286189054180777780e-02
 7.359891155312658917e-02
 7.434211989127337272e-02
 7.509139114016351313e-02
 7.584659555419961952e-02
 7.660759810474743192e-02
 7.737425853578974722e-02
 7.814643142883845317e-02
 7.892396627715955737e-02
 7.970670756934029877e-02
 8.049449488219975746e-02
 8.128716298301702503e-02
 8.208454194102274282e-02
 8.288645724807051918e-02
 8.369272994837625990e-02
 8.450317677718358067e-02
 8.531761030818424407e-02
 8.613583910949308697e-02
 8.695766790794798307e-02
 8.778289776147607526e-02
 8.861132623923971552e-02
 8.944274760924780798e-02
 9.027695303309095365e-02
 9.111373076743348176e-02
 9.195286637186990408e-02
 9.279414292273052700e-02
 9.363734123239783602e-02
 9.448224007367536648e-02
 9.532861640873033227e-02
 9.617624562211513073e-02
 9.702490175735636879e-02
 9.787435775658620551e-02
 9.872438570267946800e-02
 9.957475706334971421e-02
 3.023997687408707530e-02
 3.032082309519184768e-02
 3.040347310476908954e-02
 3.048796493583583178e-02
 3.057433732106488999e-02
 3.066262970084591283e-02
 3.075288223119364978e-02
 3.084513579148717710e-02
 3.093943199202317529e-02
 3.103581318136561240e-02
 3.113432245347328223e-02
 3.123500365458591055e-02
 3.133790138984859919e-02
 3.144306102965384320e-02
 3.155052871567914224e-02
 3.166035136659733212e-02
 3.177257668343627661e-02
 3.188725315456308884e-02
 3.200443006026744419e-02
 3.212415747691764467e-02
 3.224648628066170697e-02
 3.237146815064528838e-02
 3.249915557171678682e-02
 3.262960183658936142e-02
 3.276286104742823224e-02
 3.289898811683081292e-02
 3.303803876816611973e-02
 3.318006953523885277e-02
 3.332513776124250426e-02
 3.347330159696483565e-02
 3.362461999820808012e-02
 3.377915272238490862e-02
 3.393696032425061460e-02
 3.409810415073067508e-02
 3.426264633480184674e-02
 3.443064978838419887e-02
 3.460217819420027124e-02
 3.477729599655679515e-02
 3.495606839100356966e-02
 3.513856131282314110e-02
 3.532484142430415003e-02
 3.551497610075045330e-02
 3.570903341517754626e-02
 3.590708212164717833e-02
 3.610919163719016056e-02
 3.631543202226754363e-02
 3.652587395971911011e-02
 3.674058873214872123e-02
 3.695964819769498311e-02
 3.718312476413633549e-02
 3.741109136127904883e-02
 3.764362141157731600e-02
 3.788078879893444495e-02
 3.812266783563481726e-02
 3.836933322735674307e-02
 3.862086003621716113e-02
 3.887732364179979916e-02
 3.913879970011990839e-02
 3.940536410047927596e-02
 3.967709292016745326e-02
 3.995406237696629698e-02
 4.023634877941684174e-02
 4.052402847480994497e-02
 4.081717779486419839e-02
 4.111587299905731380e-02
 4.142019021558032699e-02
 4.173020537988644807e-02
 4.204599417081065355e-02
 4.236763194423915496e-02
 4.269519366431225038e-02
 4.302875383214820049e-02
 4.336838641208042716e-02
 4.371416475540537694e-02
 4.406616152164355427e-02
 4.442444859732171125e-02
 4.478909701229019658e-02
 4.516017685359592637e-02
 4.553775717693751834e-02
 4.592190591573638847e-02
 4.631268978786484691e-02
 4.671017420007953641e-02
 4.711442315021667493e-02
 4.752549912721353020e-02
 4.794346300902939395e-02
 4.836837395854748367e-02
 4.880028931754895605e-02
 4.923926449885902834e-02
 4.968535287677477985e-02
 5.013860567589446815e-02
 5.059907185847738187e-02
 5.106679801047409040e-02
 5.154182822637674855e-02
 5.202420399304984178e-02
 5.251396407271201328e-02
 5.301114438525013350e-02
 5.351577789005741020e-02
 5.402789446759769659e-02
 5.454752080090845279e-02
 5.507468025726530714e-02
 5.560939277024103122e-02
 5.615167472240148450e-02
 5.670153882889077818e-02
 5.725899402216718531e-02
 5.782404533815978243e-02
 5.839669380412423894e-02
 5.897693632848415024e-02
 5.956476559295130480e-02
 6.016016994722477723e-02
 6.076313330657470702e-02
 6.137363505262151409e-02
 6.199164993762580622e-02
 6.261714799260695297e-02
 6.325009443961136790e-02
 6.389044960845230436e-02
 6.453816885824339988e-02
 6.519320250404729566e-02
 6.585549574895860347e-02
 6.652498862193720330e-02
 6.720161592170302567e-02
 6.788530716699821277e-02
 6.857598655351428152e-02
 6.927357291777436199e-02
 6.997797970825025970e-02
 7.068911496398222472e-02
 7.140688130095704245e-02
 7.213117590648591981e-02
 7.286189054180777780e-02
 7.359891155312658917e-02
 7.434211989127337272e-02
 7.509139114016351313e-02
 7.584659555419961952e-02
 7.660759810474743192e-02
 7.737425853578974722e-02
 7.814643142883843929e-02
 7.892396627715954349e-02
 7.970670756934029877e-02
 8.049449488219975746e-02
 8.128716298301702503e-02
 8.208454194102274282e-02
 8.288645724807053305e-02
 8.369272994837625990e-02
 8.450317677718358067e-02
 8.531761030818424407e-02
 8.613583910949308697e-02
 8.695766790794798307e-02
 8.778289776147607526e-02
 8.861132623923971552e-02
 8.944274760924779410e-02
 9.027695303309095365e-02
 9.111373076743348176e-02
 9.195286637186990408e-02
 9.279414292273051312e-02
 9.363734123239783602e-02
 9.448224007367536648e-02
 9.532861640873033227e-02
 9.617624562211513073e-02
 9.702490175735636879e-02
 9.787435775658621939e-02
 9.872438570267946800e-02
 9.957475706334971421e-02
 3.023997687408707530e-02
 3.032082309519184421e-02
 3.040347310476908954e-02
 3.048796493583582831e-02
 3.057433732106488999e-02
 3.066262970084590936e-02
 3.075288223119365325e-02
 3.084513579148718404e-02
 3.093943199202317529e-02
 3.103581318136561240e-02
 3.113432245347328223e-02
 3.123500365458591055e-02
 3.133790138984859225e-02
 3.144306102965384320e-02
 3.155052871567913531e-02
 3.166035136659732518e-02
 3.177257668343627661e-02
 3.188725315456308190e-02
 3.200443006026744419e-02
 3.212415747691763773e-02
 3.224648628066170697e-02
 3.237146815064528838e-02
 3.249915557171678682e-02
 3.262960183658936142e-02
 3.276286104742823224e-02
 3.289898811683081292e-02
 3.303803876816611973e-02
 3.318006953523885277e-02
 3.332513776124250426e-02
 3.347330159696483565e-02
 3.362461999820809400e-02
 3.377915272238491556e-02
 3.393696032425061460e-02
 3.409810415073066814e-02
 3.426264633480184674e-02
 3.443064978838419887e-02
 3.460217819420027124e-02
 3.477729599655679515e-02
 3.495606839100356966e-02
 3.513856131282314110e-02
 3.532484142430415003e-02
 3.551497610075045330e-02
 3.570903341517754626e-02
 3.590708212164717833e-02
 3.610919163719016056e-02
 3.631543202226753669e-02
 3.652587395971911011e-02
 3.674058873214871429e-02
 3.695964819769498311e-02
 3.718312476413633549e-02
 3.741109136127905577e-02
 3.764362141157731600e-02
 3.788078879893444495e-02
 3.812266783563481726e-02
 3.836933322735674307e-02
 3.862086003621716113e-02
 3.887732364179979916e-02
 3.913879970011990839e-02
 3.940536410047927596e-02
 3.967709292016745326e-02
 3.995406237696629698e-02
 4.023634877941684174e-02
 4.052402847480994497e-02
 4.081717779486419145e-02
 4.111587299905730686e-02
 4.142019021558032699e-02
 4.173020537988645501e-02
 4.204599417081065355e-02
 4.236763194423915496e-02
 4.269519366431224344e-02
 4.302875383214820049e-02
 4.336838641208043410e-02
 4.371416475540537694e-02
 4.406616152164356121e-02
 4.442444859732171125e-02
 4.478909701229019658e-02
 4.516017685359592637e-02
 4.553775717693751834e-02
 4.592190591573638847e-02
 4.631268978786484691e-02
 4.671017420007953641e-02
 4.711442315021666105e-02
 4.752549912721353020e-02
 4.794346300902939395e-02
 4.836837395854748367e-02
 4.880028931754895605e-02
 4.923926449885902834e-02
 4.968535287677477985e-02
 5.013860567589446815e-02
 5.059907185847738187e-02
 5.106679801047409040e-02
 5.154182822637674161e-02
 5.202420399304982790e-02
 5.251396407271200634e-02
 5.301114438525011963e-02
 5.351577789005740327e-02
 5.402789446759770353e-02
 5.454752080090845279e-02
 5.507468025726530714e-02
 5.560939277024103122e-02
 5.615167472240148450e-02
 5.670153882889077124e-02
 5.725899402216718531e-02
 5.782404533815978243e-02
 5.839669380412423894e-02
 5.897693632848415024e-02
 5.956476559295129786e-02
 6.016016994722477723e-02
 6.076313330657470702e-02
 6.137363505262151409e-02
 6.199164993762580622e-02
 6.261714799260695297e-02
 6.325009443961136790e-02
 6.389044960845230436e-02
 6.453816885824339988e-02
 6.519320250404729566e-02
 6.585549574895860347e-02
 6.652498862193718943e-02
 6.720161592170302567e-02
 6.788530716699822665e-02
 6.857598655351426764e-02
 6.927357291777436199e-02
 6.997797970825025970e-02
 7.068911496398223859e-02
 7.140688130095704245e-02
 7.213117590648590594e-02
 7.286189054180777780e-02
 7.359891155312660305e-02
 7.434211989127337272e-02
 7.509139114016351313e-02
 7.584659555419961952e-02
 7.660759810474741804e-02
 7.737425853578974722e-02
 7.814643142883845317e-02
 7.892396627715954349e-02
 7.970670756934028489e-02
 8.049449488219975746e-02
 8.128716298301702503e-02
 8.208454194102274282e-02
 8.288645724807053305e-02
 8.369272994837627377e-02
 8.450317677718358067e-02
 8.531761030818424407e-02
 8.613583910949308697e-02
 8.695766790794801082e-02
 8.778289776147607526e-02
 8.861132623923971552e-02
 8.944274760924780798e-02
 9.027695303309095365e-02
 9.111373076743348176e-02
 9.195286637186990408e-02
 9.279414292273051312e-02
 9.363734123239782214e-02
 9.448224007367536648e-02
 9.532861640873033227e-02
 9.617624562211513073e-02
 9.702490175735638267e-02
 9.787435775658620551e-02
 9.872438570267946800e-02
 9.957475706334970034e-02
 3.023997687408707530e-02
 3.032082309519184421e-02
 3.040347310476908607e-02
 3.048796493583582831e-02
 3.057433732106488999e-02
 3.066262970084590936e-02
 3.075288223119364978e-02
 3.084513579148718404e-02
 3.093943199202317529e-02
 3.103581318136561240e-02
 3.113432245347328223e-02
 3.123500365458591055e-02
 3.133790138984859225e-02
 3.144306102965384320e-02
 3.155052871567914224e-02
 3.166035136659733212e-02
 3.177257668343627661e-02
 3.188725315456308884e-02
 3.200443006026744419e-02
 3.212415747691764467e-02
 3.224648628066170697e-02
 3.237146815064528838e-02
 3.249915557171678682e-02
 3.262960183658936142e-02
 3.276286104742823224e-02
 3.289898811683081292e-02
 3.303803876816611973e-02
 3.318006953523885277e-02
 3.332513776124250426e-02
 3.347330159696484259e-02
 3.362461999820808706e-02
 3.377915272238491556e-02
 3.393696032425061460e-02
 3.409810415073066814e-02
 3.426264633480184674e-02
 3.443064978838419887e-02
 3.460217819420027124e-02
 3.477729599655679515e-02
 3.495606839100356966e-02
 3.513856131282314110e-02
 3.532484142430415697e-02
 3.551497610075045330e-02
 3.570903341517754626e-02
 3.590708212164717833e-02
 3.610919163719016750e-02
 3.631543202226754363e-02
 3.652587395971911011e-02
 3.674058873214872123e-02
 3.695964819769498311e-02
 3.718312476413633549e-02
 3.741109136127904883e-02
 3.764362141157731600e-02
 3.788078879893444495e-02
 3.812266783563481032e-02
 3.836933322735674307e-02
 3.862086003621716113e-02
 3.887732364179979916e-02
 3.913879970011990839e-02
 3.940536410047927596e-02
 3.967709292016745326e-02
 3.995406237696629698e-02
 4.023634877941684174e-02
 4.052402847480994497e-02
 4.081717779486419839e-02
 4.111587299905732074e-02
 4.142019021558034086e-02
 4.173020537988646195e-02
 4.204599417081066048e-02
 4.236763194423915496e-02
 4.269519366431224344e-02
 4.302875383214820049e-02
 4.336838641208042716e-02
 4.371416475540537694e-02
 4.406616152164356121e-02
 4.442444859732170431e-02
 4.478909701229019658e-02
 4.516017685359592637e-02
 4.553775717693751834e-02
 4.592190591573639541e-02
 4.631268978786485385e-02
 4.671017420007954335e-02
 4.711442315021666105e-02
 4.752549912721352326e-02
 4.794346300902938701e-02
 4.836837395854748367e-02
 4.880028931754896299e-02
 4.923926449885902140e-02
 4.968535287677477985e-02
 5.013860567589446815e-02
 5.059907185847738187e-02
 5.106679801047409040e-02
 5.154182822637674161e-02
 5.202420399304982790e-02
 5.251396407271200634e-02
 5.301114438525011963e-02
 5.351577789005740327e-02
 5.402789446759770353e-02
 5.454752080090845279e-02
 5.507468025726530714e-02
 5.560939277024103122e-02
 5.615167472240148450e-02
 5.670153882889077124e-02
 5.725899402216718531e-02
 5.782404533815978936e-02
 5.839669380412423894e-02
 5.897693632848415024e-02
 5.956476559295130480e-02
 6.016016994722477723e-02
 6.076313330657470008e-02
 6.137363505262151409e-02
 6.199164993762581316e-02
 6.261714799260695297e-02
 6.325009443961136790e-02
 6.389044960845230436e-02
 6.453816885824339988e-02
 6.519320250404729566e-02
 6.585549574895860347e-02
 6.652498862193720330e-02
 6.720161592170303955e-02
 6.788530716699821277e-02
 6.857598655351426764e-02
 6.927357291777434811e-02
 6.997797970825025970e-02
 7.068911496398222472e-02
 7.140688130095704245e-02