<VTKFile type="UnstructuredGrid" byte_order="BigEndian">
<UnstructuredGrid><Piece NumberOfPoints="1296" NumberOfCells="1200">
<Points>
 <DataArray type="Float32" NumberOfComponents="3" format="ascii">
 3.020000085234642029e-02 0.000000000000000000e+00 0.000000000000000000e+00
 3.036169335246086121e-02 0.000000000000000000e+00 0.000000000000000000e+00
 3.053067624568939209e-02 0.000000000000000000e+00 0.000000000000000000e+00
 3.070726059377193451e-02 0.000000000000000000e+00 0.000000000000000000e+00
 3.089176863431930542e-02 0.000000000000000000e+00 0.000000000000000000e+00
 3.108453005552291870e-02 0.000000000000000000e+00 0.000000000000000000e+00
 3.128589317202568054e-02 0.000000000000000000e+00 0.000000000000000000e+00
 3.149621188640594482e-02 0.000000000000000000e+00 0.000000000000000000e+00
 3.171585872769355774e-02 0.000000000000000000e+00 0.000000000000000000e+00
 3.194520995020866394e-02 0.000000000000000000e+00 0.000000000000000000e+00
 3.218466416001319885e-02 0.000000000000000000e+00 0.000000000000000000e+00
 3.243462741374969482e-02 0.000000000000000000e+00 0.000000000000000000e+00
 3.269552066922187805e-02 0.000000000000000000e+00 0.000000000000000000e+00
 3.296777606010437012e-02 0.000000000000000000e+00 0.000000000000000000e+00
 3.325183689594268799e-02 0.000000000000000000e+00 0.000000000000000000e+00
 3.354816511273384094e-02 0.000000000000000000e+00 0.000000000000000000e+00
 3.385723009705543518e-02 0.000000000000000000e+00 0.000000000000000000e+00
 3.417951613664627075e-02 0.000000000000000000e+00 0.000000000000000000e+00
 3.451552614569664001e-02 0.000000000000000000e+00 0.000000000000000000e+00
 3.486575931310653687e-02 0.000000000000000000e+00 0.000000000000000000e+00
 3.523074463009834290e-02 0.000000000000000000e+00 0.000000000000000000e+00
 3.561101481318473816e-02 0.000000000000000000e+00 0.000000000000000000e+00
 3.600711375474929810e-02 0.000000000000000000e+00 0.000000000000000000e+00
 3.641959279775619507e-02 0.000000000000000000e+00 0.000000000000000000e+00
 3.684902191162109375e-02 0.000000000000000000e+00 0.000000000000000000e+00
 3.729597479104995728e-02 0.000000000000000000e+00 0.000000000000000000e+00
 3.776103630661964417e-02 0.000000000000000000e+00 0.000000000000000000e+00
 3.824479505419731140e-02 0.000000000000000000e+00 0.000000000000000000e+00
 3.874784708023071289e-02 0.000000000000000000e+00 0.000000000000000000e+00
 3.927079960703849792e-02 0.000000000000000000e+00 0.000000000000000000e+00
 3.981425613164901733e-02 0.000000000000000000e+00 0.000000000000000000e+00
 4.037883132696151733e-02 0.000000000000000000e+00 0.000000000000000000e+00
 4.096512869000434875e-02 0.000000000000000000e+00 0.000000000000000000e+00
 4.157376289367675781e-02 0.000000000000000000e+00 0.000000000000000000e+00
 4.220534116029739380e-02 0.000000000000000000e+00 0.000000000000000000e+00
 4.286046326160430908e-02 0.000000000000000000e+00 0.000000000000000000e+00
 4.353972896933555603e-02 0.000000000000000000e+00 0.000000000000000000e+00
 4.424372315406799316e-02 0.000000000000000000e+00 0.000000000000000000e+00
 4.497301951050758362e-02 0.000000000000000000e+00 0.000000000000000000e+00
 4.572818055748939514e-02 0.000000000000000000e+00 0.000000000000000000e+00
 4.650975018739700317e-02 0.000000000000000000e+00 0.000000000000000000e+00
 4.731824621558189392e-02 0.000000000000000000e+00 0.000000000000000000e+00
 4.815417528152465820e-02 0.000000000000000000e+00 0.000000000000000000e+00
 4.901800677180290222e-02 0.000000000000000000e+00 0.000000000000000000e+00
 4.991018027067184448e-02 0.000000000000000000e+00 0.000000000000000000e+00
 5.083111301064491272e-02 0.000000000000000000e+00 0.000000000000000000e+00
 5.178117379546165466e-02 0.000000000000000000e+00 0.000000000000000000e+00
 5.276069417595863342e-02 0.000000000000000000e+00 0.000000000000000000e+00
 5.376996099948883057e-02 0.000000000000000000e+00 0.000000000000000000e+00
 5.480921268463134766e-02 0.000000000000000000e+00 0.000000000000000000e+00
 5.587863922119140625e-02 0.000000000000000000e+00 0.000000000000000000e+00
 5.697836726903915405e-02 0.000000000000000000e+00 0.000000000000000000e+00
 5.810847133398056030e-02 0.000000000000000000e+00 0.000000000000000000e+00
 5.926895514130592346e-02 0.000000000000000000e+00 0.000000000000000000e+00
 6.045976281166076660e-02 0.000000000000000000e+00 0.000000000000000000e+00
 6.168076768517494202e-02 0.000000000000000000e+00 0.000000000000000000e+00
 6.293176114559173584e-02 0.000000000000000000e+00 0.000000000000000000e+00
 6.421247124671936035e-02 0.000000000000000000e+00 0.000000000000000000e+00
 6.552254408597946167e-02 0.000000000000000000e+00 0.000000000000000000e+00
 6.686152517795562744e-02 0.000000000000000000e+00 0.000000000000000000e+00
 6.822890788316726685e-02 0.000000000000000000e+00 0.000000000000000000e+00
 6.962408125400543213e-02 0.000000000000000000e+00 0.000000000000000000e+00
 7.104635238647460938e-02 0.000000000000000000e+00 0.000000000000000000e+00
 7.249493896961212158e-02 0.000000000000000000e+00 0.000000000000000000e+00
 7.396898418664932251e-02 0.000000000000000000e+00 0.000000000000000000e+00
 7.546752691268920898e-02 0.000000000000000000e+00 0.000000000000000000e+00
 7.698953151702880859e-02 0.000000000000000000e+00 0.000000000000000000e+00
 7.853388041257858276e-02 0.000000000000000000e+00 0.000000000000000000e+00
 8.009935915470123291e-02 0.000000000000000000e+00 0.000000000000000000e+00
 8.168469369411468506e-02 0.000000000000000000e+00 0.000000000000000000e+00
 8.328852802515029907e-02 0.000000000000000000e+00 0.000000000000000000e+00
 8.490942418575286865e-02 0.000000000000000000e+00 0.000000000000000000e+00
 8.654587715864181519e-02 0.000000000000000000e+00 0.000000000000000000e+00
 8.819633722305297852e-02 0.000000000000000000e+00 0.000000000000000000e+00
 8.985918015241622925e-02 0.000000000000000000e+00 0.000000000000000000e+00
 9.153273701667785645e-02 0.000000000000000000e+00 0.000000000000000000e+00
 9.321528673171997070e-02 0.000000000000000000e+00 0.000000000000000000e+00
 9.490508586168289185e-02 0.000000000000000000e+00 0.000000000000000000e+00
 9.660034626722335815e-02 0.000000000000000000e+00 0.000000000000000000e+00
 9.829925745725631714e-02 0.000000000000000000e+00 0.000000000000000000e+00
 1.000000014901161194e-01 0.000000000000000000e+00 0.000000000000000000e+00
 3.020000085234642029e-02 2.724006481003016233e-04 0.000000000000000000e+00
 3.036169335246086121e-02 2.724006481003016233e-04 0.000000000000000000e+00
 3.053067624568939209e-02 2.724006481003016233e-04 0.000000000000000000e+00
 3.070726059377193451e-02 2.724006481003016233e-04 0.000000000000000000e+00
 3.089176863431930542e-02 2.724006481003016233e-04 0.000000000000000000e+00
 3.108453005552291870e-02 2.724006481003016233e-04 0.000000000000000000e+00
 3.128589317202568054e-02 2.724006481003016233e-04 0.000000000000000000e+00
 3.149621188640594482e-02 2.724006481003016233e-04 0.000000000000000000e+00
 3.171585872769355774e-02 2.724006481003016233e-04 0.000000000000000000e+00
 3.194520995020866394e-02 2.724006481003016233e-04 0.000000000000000000e+00
 3.218466416001319885e-02 2.724006481003016233e-04 0.000000000000000000e+00
 3.243462741374969482e-02 2.724006481003016233e-04 0.000000000000000000e+00
 3.269552066922187805e-02 2.724006481003016233e-04 0.000000000000000000e+00
 3.296777606010437012e-02 2.724006481003016233e-04 0.000000000000000000e+00
 3.325183689594268799e-02 2.724006481003016233e-04 0.000000000000000000e+00
 3.354816511273384094e-02 2.724006481003016233e-04 0.000000000000000000e+00
 3.385723009705543518e-02 2.724006481003016233e-04 0.000000000000000000e+00
 3.417951613664627075e-02 2.724006481003016233e-04 0.000000000000000000e+00
 3.451552614569664001e-02 2.724006481003016233e-04 0.000000000000000000e+00
 3.486575931310653687e-02 2.724006481003016233e-04 0.000000000000000000e+00
 3.523074463009834290e-02 2.724006481003016233e-04 0.000000000000000000e+00
 3.561101481318473816e-02 2.724006481003016233e-04 0.000000000000000000e+00
 3.600711375474929810e-02 2.724006481003016233e-04 0.000000000000000000e+00
 3.641959279775619507e-02 2.724006481003016233e-04 0.000000000000000000e+00
 3.684902191162109375e-02 2.724006481003016233e-04 0.000000000000000000e+00
 3.729597479104995728e-02 2.724006481003016233e-04 0.000000000000000000e+00
 3.776103630661964417e-02 2.724006481003016233e-04 0.000000000000000000e+00
 3.824479505419731140e-02 2.724006481003016233e-04 0.000000000000000000e+00
 3.874784708023071289e-02 2.724006481003016233e-04 0.000000000000000000e+00
 3.927079960703849792e-02 2.724006481003016233e-04 0.000000000000000000e+00
 3.981425613164901733e-02 2.724006481003016233e-04 0.000000000000000000e+00
 4.037883132696151733e-02 2.724006481003016233e-04 0.000000000000000000e+00
 4.096512869000434875e-02 2.724006481003016233e-04 0.000000000000000000e+00
 4.157376289367675781e-02 2.724006481003016233e-04 0.000000000000000000e+00
 4.220534116029739380e-02 2.724006481003016233e-04 0.000000000000000000e+00
 4.286046326160430908e-02 2.724006481003016233e-04 0.000000000000000000e+00
 4.353972896933555603e-02 2.724006481003016233e-04 0.000000000000000000e+00
 4.424372315406799316e-02 2.724006481003016233e-04 0.000000000000000000e+00
 4.497301951050758362e-02 2.724006481003016233e-04 0.000000000000000000e+00
 4.572818055748939514e-02 2.724006481003016233e-04 0.000000000000000000e+00
 4.650975018739700317e-02 2.724006481003016233e-04 0.000000000000000000e+00
 4.731824621558189392e-02 2.724006481003016233e-04 0.000000000000000000e+00
 4.815417528152465820e-02 2.724006481003016233e-04 0.000000000000000000e+00
 4.901800677180290222e-02 2.724006481003016233e-04 0.000000000000000000e+00
 4.991018027067184448e-02 2.724006481003016233e-04 0.000000000000000000e+00
 5.083111301064491272e-02 2.724006481003016233e-04 0.000000000000000000e+00
 5.178117379546165466e-02 2.724006481003016233e-04 0.000000000000000000e+00
[...]
<CellData>
 <DataArray Name="pos.x" type="Float32" NumberOfComponents="1" format="ascii">
 3.028084622110489149e-02
 3.044618427327630550e-02
 3.061896848412324831e-02
 3.079951442419835705e-02
 3.098814917383447068e-02
 3.118521156428948407e-02
 3.139105240520904949e-02
 3.160603469593054049e-02
 3.183053381797566750e-02
 3.206493770575210428e-02
 3.230964699238764865e-02
 3.256507512724221565e-02
 3.283164846151753746e-02
 3.310980629799367692e-02
 3.340000090078804051e-02
 3.370269746068774164e-02
 3.401837401134438083e-02
 3.434752129140698079e-02
 3.469064254734604419e-02
 3.504825327152283343e-02
 3.542088086978797956e-02
 3.580906425270324878e-02
 3.621335334425047903e-02
 3.663430850175806303e-02
 3.707249984062822856e-02
 3.752850645736845875e-02
 3.800291554436708436e-02
 3.849632138992736125e-02
 3.900932425710799262e-02
 3.954252913511716733e-02
 4.009654435725457100e-02
 4.067198007976006308e-02
 4.126944661633701050e-02
 4.188955262378483979e-02
 4.253290313478118312e-02
 4.320009743478734482e-02
 4.389172678095717983e-02
 4.460837196216454331e-02
 4.535060070047377406e-02
 4.611896489594406040e-02
 4.691399771821033737e-02
 4.773621055016240289e-02
 4.858608979098037045e-02
 4.946409352789718494e-02
 5.037064808839628038e-02
 5.130614448688151225e-02
 5.227093478244635577e-02
 5.326532836691578315e-02
 5.428958820503407279e-02
 5.534392705132053919e-02
 5.642850367078487694e-02
 5.754341909326769061e-02
 5.868871293361972719e-02
 5.986435981225306235e-02
 6.107026591257354309e-02
 6.230626571360109445e-02
 6.357211893742362174e-02
 6.486750775206950870e-02
 6.619203427085115776e-02
 6.754521838912473652e-02
 6.892649599867951837e-02
 7.033521761867141120e-02
 7.177064747993312788e-02
 7.323196309678055294e-02
 7.471825535698931042e-02
 7.622852915642749916e-02
 7.776170460002362894e-02
 7.931661878525445020e-02
 8.089202817825021097e-02
 8.248661158611718391e-02
 8.409897372197169818e-02
 8.572764935208680714e-02
 8.737110800692515777e-02
 8.902775923046099549e-02
 9.069595833481162994e-02
 9.237401262001410096e-02
 9.406018801215314251e-02
 9.575271606681515224e-02
 9.744980127942932946e-02
 9.914962863932948178e-02
 3.028084622110472149e-02
 3.044618427327663510e-02
 3.061896848412298117e-02
 3.079951442419893645e-02
 3.098814917383511253e-02
 3.118521156428969571e-02
 3.139105240520685680e-02
 3.160603469593127601e-02
 3.183053381797634057e-02
 3.206493770575249286e-02
 3.230964699238718374e-02
 3.256507512724293729e-02
 3.283164846151746114e-02
 3.310980629799346875e-02
 3.340000090078833195e-02
 3.370269746068726979e-02
 3.401837401134490818e-02
 3.434752129140618282e-02
 3.469064254734591235e-02
 3.504825327152246567e-02
 3.542088086978737588e-02
 3.580906425270380389e-02
 3.621335334425016678e-02
 3.663430850175805609e-02
 3.707249984062857551e-02
 3.752850645736854202e-02
 3.800291554436678598e-02
 3.849632138992711144e-02
 3.900932425710829793e-02
 3.954252913511651507e-02
 4.009654435725503591e-02
 4.067198007975981328e-02
 4.126944661633722561e-02
 4.188955262378441652e-02
 4.253290313478173823e-02
 4.320009743478719216e-02
 4.389172678095772800e-02
 4.460837196216326656e-02
 4.535060070047475939e-02
 4.611896489594375509e-02
 4.691399771820965736e-02
 4.773621055016338127e-02
 4.858608979097995412e-02
 4.946409352789706004e-02
 5.037064808839705060e-02
 5.130614448688178980e-02
 5.227093478244664027e-02
 5.326532836691614398e-02
 5.428958820503353849e-02
 5.534392705132076123e-02
 5.642850367078539042e-02
 5.754341909326688570e-02
 5.868871293362007413e-02
 5.986435981225364522e-02
 6.107026591257318227e-02
 6.230626571360112914e-02
 6.357211893742341358e-02
 6.486750775206889807e-02
 6.619203427085050551e-02
 6.754521838912461162e-02
 6.892649599868000410e-02
 7.033521761867193856e-02
 7.177064747993296134e-02
 7.323196309678055294e-02
 7.471825535698976839e-02
 7.622852915642713834e-02
 7.776170460002397589e-02
 7.931661878525397835e-02
 8.089202817825100200e-02
 8.248661158611651778e-02
 8.409897372197183696e-02
 8.572764935208644632e-02
 8.737110800692562962e-02
 8.902775923046132855e-02
 9.069595833481118585e-02
 9.237401262001521118e-02
 9.406018801215332292e-02
 9.575271606681590164e-02
 9.744980127942835801e-02
 9.914962863933080017e-02
 3.028084622110457577e-02
 3.044618427327715551e-02
 3.061896848412297770e-02
 3.079951442419908217e-02
 3.098814917383361373e-02
 3.118521156428992122e-02
 3.139105240520872336e-02
 3.160603469592992987e-02
 3.183053381797589648e-02
 3.206493770575270796e-02
 3.230964699238721843e-02
 3.256507512724295117e-02
 3.283164846151736399e-02
 3.310980629799419039e-02
 3.340000090078775602e-02
 3.370269746068761674e-02
 3.401837401134442940e-02
 3.434752129140732774e-02
 3.469064254734529479e-02
 3.504825327152235465e-02
 3.542088086978707751e-02
 3.580906425270401205e-02
 3.621335334425030555e-02
 3.663430850175786180e-02
 3.707249984062819387e-02
 3.752850645736870161e-02
 3.800291554436686925e-02
 3.849632138992692409e-02
 3.900932425710851997e-02
 3.954252913511682732e-02
 4.009654435725527183e-02
 4.067198007975947327e-02
 4.126944661633741296e-02
 4.188955262378443040e-02
 4.253290313478160639e-02
 4.320009743478695624e-02
 4.389172678095771413e-02
 4.460837196216380085e-02
 4.535060070047469000e-02
 4.611896489594410203e-02
 4.691399771820956716e-02
 4.773621055016290943e-02
 4.858608979098043290e-02
 4.946409352789669228e-02
 5.037064808839635671e-02
 5.130614448688094326e-02
 5.227093478244716068e-02
 5.326532836691564438e-02
 5.428958820503397564e-02
 5.534392705131992857e-02
 5.642850367078570961e-02
 5.754341909326719795e-02
 5.868871293361978270e-02
 5.986435981225370073e-02
 6.107026591257380677e-02
 6.230626571360096261e-02
 6.357211893742398257e-02
 6.486750775206800990e-02
 6.619203427085117164e-02
 6.754521838912395937e-02
 6.892649599867992083e-02
 7.033521761867220223e-02
 7.177064747993301685e-02
 7.323196309678033089e-02
 7.471825535698954635e-02
 7.622852915642773508e-02
 7.776170460002349016e-02
 7.931661878525263221e-02
 8.089202817825172365e-02
 8.248661158611701738e-02
 8.409897372197132348e-02
 8.572764935208751491e-02
 8.737110800692475532e-02
 8.902775923046110651e-02
 9.069595833481118585e-02
 9.237401262001476709e-02
 9.406018801215264291e-02
 9.575271606681565184e-02
 9.744980127942885761e-02
 9.914962863932955117e-02
 3.028084622110503374e-02
 3.044618427327628468e-02
 3.061896848412381730e-02
 3.079951442419829460e-02
 3.098814917383386700e-02
 3.118521156428936958e-02
 3.139105240520763396e-02
 3.160603469593128295e-02
 3.183053381797572301e-02
 3.206493770575230551e-02
 3.230964699238752375e-02
 3.256507512724290954e-02
 3.283164846151759991e-02
 3.310980629799328834e-02
 3.340000090078865114e-02
 3.370269746068758898e-02
 3.401837401134526206e-02
 3.434752129140725835e-02
 3.469064254734574582e-02
 3.504825327152213260e-02
 3.542088086978734812e-02
 3.580906425270363735e-02
 3.621335334425120067e-02
 3.663430850175677239e-02
 3.707249984062849224e-02
 3.752850645736818119e-02
 3.800291554436695252e-02
 3.849632138992728492e-02
 3.900932425710753465e-02
 3.954252913511661915e-02
 4.009654435725531346e-02
 4.067198007975910551e-02
 4.126944661633742684e-02
 4.188955262378450672e-02
 4.253290313478169660e-02
 4.320009743478690767e-02
 4.389172678095817209e-02
 4.460837196216328737e-02
 4.535060070047435693e-02
 4.611896489594417836e-02
 4.691399771820978920e-02
 4.773621055016340209e-02
 4.858608979097969044e-02
 4.946409352789753883e-02
 5.037064808839619018e-02
 5.130614448688154000e-02
 5.227093478244666108e-02
 5.326532836691552641e-02
 5.428958820503380911e-02
 5.534392705132037960e-02
 5.642850367078552226e-02
 5.754341909326740612e-02
 5.868871293361972025e-02
 5.986435981225332603e-02
 6.107026591257327941e-02
 6.230626571360166344e-02
 6.357211893742316378e-02
 6.486750775206875930e-02
 6.619203427085078306e-02
 6.754521838912451448e-02
 6.892649599867979593e-02
 7.033521761867167488e-02
 7.177064747993401606e-02
 7.323196309677959537e-02
 7.471825535698994880e-02
 7.622852915642726324e-02
 7.776170460002398976e-02
 7.931661878525257670e-02
 8.089202817825211222e-02
 8.248661158611619859e-02
 8.409897372197176757e-02
 8.572764935208695980e-02
 8.737110800692511614e-02
 8.902775923046149509e-02
 9.069595833481107483e-02
 9.237401262001440627e-02
 9.406018801215315639e-02
 9.575271606681527714e-02
 9.744980127942956538e-02
 9.914962863932967607e-02
 3.028084622110565477e-02
 3.044618427327639917e-02
 3.061896848412370628e-02
 3.079951442419836746e-02
 3.098814917383476558e-02
 3.118521156428957775e-02
 3.139105240520773804e-02
 3.160603469593153969e-02
 3.183053381797538300e-02
 3.206493770575266633e-02
 3.230964699238676047e-02
 3.256507512724267361e-02
 3.283164846151824523e-02
 3.310980629799345487e-02
 3.340000090078874828e-02
 3.370269746068751959e-02
 3.401837401134431144e-02
 3.434752129140733468e-02
 3.469064254734625929e-02
 3.504825327152263220e-02
 3.542088086978707751e-02
 3.580906425270355409e-02
 3.621335334425045821e-02
 3.663430850175802139e-02
 3.707249984062838122e-02
 3.752850645736840324e-02
 3.800291554436696639e-02
 3.849632138992727798e-02
 3.900932425710827017e-02
 3.954252913511704243e-02
 4.009654435725549387e-02
 4.067198007975974389e-02
 4.126944661633721867e-02
 4.188955262378453448e-02
 4.253290313478125251e-02
 4.320009743478731706e-02
 4.389172678095722840e-02
 4.460837196216429351e-02
 4.535060070047395447e-02
 4.611896489594474735e-02
 4.691399771820933817e-02
 4.773621055016321474e-02
 4.858608979097963493e-02
 4.946409352789752495e-02
 5.037064808839613467e-02
 5.130614448688160939e-02
 5.227093478244648761e-02
 5.326532836691617867e-02
 5.428958820503364952e-02
 5.534392705131998408e-02
 5.642850367078562634e-02
 5.754341909326760041e-02
 5.868871293361965086e-02
 5.986435981225354808e-02
 6.107026591257343207e-02
 6.230626571360173283e-02
 6.357211893742349684e-02
 6.486750775206828745e-02
 6.619203427085131042e-02
 6.754521838912440346e-02
 6.892649599867964327e-02
 7.033521761867218836e-02
 7.177064747993275318e-02
 7.323196309678044191e-02
 7.471825535698996268e-02
 7.622852915642711058e-02
 7.776170460002404528e-02
 7.931661878525358977e-02
 8.089202817825076608e-02
 8.248661158611583777e-02
 8.409897372197192023e-02
 8.572764935208755654e-02
 8.737110800692568513e-02
 8.902775923046053752e-02
 9.069595833481115810e-02
 9.237401262001455893e-02
 9.406018801215372538e-02
 9.575271606681375058e-02
 9.744980127942996784e-02
 9.914962863933100834e-02
 3.028084622110518639e-02
 3.044618427327613550e-02
 3.061896848412361608e-02
 3.079951442419813848e-02
 3.098814917383502232e-02
 3.118521156428962285e-02
 3.139105240520820989e-02
 3.160603469593122050e-02
 3.183053381797533443e-02
 3.206493770575296470e-02
 3.230964699238693394e-02
 3.256507512724191034e-02
 3.283164846151896687e-02
 3.310980629799292752e-02
 3.340000090078751316e-02
 3.370269746068742245e-02
 3.401837401134457511e-02
 3.434752129140712651e-02
 3.469064254734536418e-02
 3.504825327152216036e-02
 3.542088086978707751e-02
 3.580906425270351939e-02
 3.621335334425093699e-02
 3.663430850175728587e-02
 3.707249984062903347e-02
 3.752850645736850038e-02
 3.800291554436673741e-02
 3.849632138992761105e-02
 3.900932425710768731e-02
 3.954252913511693140e-02
 4.009654435725549387e-02
 4.067198007976004226e-02
 4.126944661633710765e-02
 4.188955262378488836e-02
 4.253290313478080842e-02
 4.320009743478709502e-02
 4.389172678095795005e-02
 4.460837196216375228e-02
 4.535060070047389896e-02
 4.611896489594450449e-02
 4.691399771820941450e-02
 4.773621055016302045e-02
 4.858608979098020392e-02
 4.946409352789717800e-02
 5.037064808839644692e-02
 5.130614448688120000e-02
 5.227093478244700109e-02
 5.326532836691574152e-02
 5.428958820503394789e-02
 5.534392705132067103e-02
 5.642850367078498797e-02
 5.754341909326732285e-02
 5.868871293361976882e-02
 5.986435981225368685e-02
 6.107026591257327941e-02
 6.230626571360162874e-02
 6.357211893742359399e-02
 6.486750775206892583e-02
 6.619203427085063041e-02
 6.754521838912468101e-02
 6.892649599868004573e-02
 7.033521761867128630e-02
 7.177064747993316951e-02
 7.323196309678027538e-02
 7.471825535699017085e-02
 7.622852915642693017e-02
 7.776170460002361506e-02
 7.931661878525435305e-02
 8.089202817825152936e-02
 8.248661158611603206e-02
 8.409897372197246146e-02
 8.572764935208747328e-02
 8.737110800692457491e-02
 8.902775923046171713e-02
 9.069595833481026992e-02
 9.237401262001530833e-02
 9.406018801215211556e-02
 9.575271606681530490e-02
 9.744980127942996784e-02
 9.914962863932956505e-02
 3.028084622110445781e-02
 3.044618427327618754e-02
 3.061896848412486508e-02
 3.079951442419827726e-02
 3.098814917383377679e-02
 3.118521156429053184e-02
 3.139105240520671802e-02
 3.160603469593275400e-02
 3.183053381797493891e-02
 3.206493770575270102e-02
 3.230964699238735721e-02
 3.256507512724265280e-02
 3.283164846151894606e-02
 3.310980629799295527e-02
 3.340000090078753398e-02
 3.370269746068855349e-02
 3.401837401134399919e-02
 3.434752129140693916e-02
 3.469064254734591929e-02
 3.504825327152207015e-02
 3.542088086978763262e-02
 3.580906425270310306e-02
 3.621335334425099944e-02
 3.663430850175757036e-02
 3.707249984062863796e-02
 3.752850645736796609e-02
 3.800291554436652924e-02
 3.849632138992795799e-02
 3.900932425710818691e-02
 3.954252913511690365e-02
 4.009654435725524407e-02
 4.067198007975943858e-02
 4.126944661633701744e-02
 4.188955262378444427e-02
 4.253290313478162721e-02
 4.320009743478720604e-02
 4.389172678095739494e-02
 4.460837196216396738e-02
 4.535060070047421815e-02
 4.611896489594431714e-02
 4.691399771820990716e-02
 4.773621055016261105e-02
 4.858608979098040515e-02
 4.946409352789685882e-02
 5.037064808839638447e-02
 5.130614448688147755e-02
 5.227093478244641822e-02
 5.326532836691603295e-02
 5.428958820503392707e-02
 5.534392705132071960e-02
 5.642850367078511287e-02
 5.754341909326733673e-02
 5.868871293362005331e-02
 5.986435981225317338e-02
 6.107026591257311288e-02
 6.230626571360140670e-02
 6.357211893742334419e-02
 6.486750775206916175e-02
 6.619203427085063041e-02
 6.754521838912475040e-02
 6.892649599868014287e-02
 7.033521761867177202e-02
 7.177064747993297522e-02
 7.323196309677966476e-02
 7.471825535699032350e-02
 7.622852915642727711e-02
 7.776170460002314322e-02
 7.931661878525393672e-02
 8.089202817825141834e-02
 8.248661158611671207e-02
 8.409897372197146226e-02
 8.572764935208732062e-02
 8.737110800692488022e-02
 8.902775923046046813e-02
 9.069595833481197689e-02
 9.237401262001410096e-02
 9.406018801215269842e-02
 9.575271606681534653e-02
 9.744980127942962089e-02
 9.914962863932980097e-02
 3.028084622110500598e-02
 3.044618427327651713e-02
 3.061896848412495181e-02
 3.079951442419795807e-02
 3.098814917383469272e-02
 3.118521156428889080e-02
 3.139105240520740497e-02
 3.160603469593150500e-02
 3.183053381797591036e-02
 3.206493770575180591e-02
 3.230964699238773191e-02
 3.256507512724271525e-02
 3.283164846151883504e-02
 3.310980629799301772e-02
 3.340000090078825562e-02
 3.370269746068702693e-02
 3.401837401134477634e-02
 3.434752129140689753e-02
 3.469064254734628705e-02
 3.504825327152213260e-02
 3.542088086978733424e-02
 3.580906425270383858e-02
 3.621335334425059005e-02
 3.663430850175795200e-02
 3.707249984062824244e-02
 3.752850645736837548e-02
 3.800291554436643210e-02
 3.849632138992765268e-02
 3.900932425710807588e-02
 3.954252913511699385e-02
 4.009654435725484856e-02
 4.067198007975990348e-02
 4.126944661633679540e-02
 4.188955262378457611e-02
 4.253290313478196721e-02
 4.320009743478681052e-02
 4.389172678095731861e-02
 4.460837196216402289e-02
 4.535060070047455816e-02
 4.611896489594385917e-02
 4.691399771820978226e-02
 4.773621055016233350e-02
 4.858608979098062025e-02
 4.946409352789738617e-02
 5.037064808839659263e-02
 5.130614448688107510e-02
 5.227093478244674435e-02
 5.326532836691574152e-02
 5.428958820503383687e-02
 5.534392705132046980e-02
 5.642850367078576512e-02
 5.754341909326686488e-02
 5.868871293361993535e-02
 5.986435981225290276e-02
 6.107026591257379289e-02
 6.230626571360149690e-02
 6.357211893742263642e-02
 6.486750775206906461e-02
 6.619203427085063041e-02
 6.754521838912475040e-02
 6.892649599867968491e-02
 7.033521761867166100e-02
 7.177064747993321114e-02
 7.323196309678070559e-02
 7.471825535698889409e-02
 7.622852915642781835e-02
 7.776170460002360119e-02
 7.931661878525332610e-02
 8.089202817825223713e-02
 8.248661158611569899e-02
 8.409897372197179533e-02
 8.572764935208701531e-02
 8.737110800692524104e-02
 8.902775923046052364e-02
 9.069595833481200464e-02
 9.237401262001448954e-02
 9.406018801215244862e-02
 9.575271606681572123e-02
 9.744980127942889925e-02
 9.914962863932959281e-02
 3.028084622110469373e-02
 3.044618427327656571e-02
 3.061896848412450078e-02
 3.079951442419741683e-02
 3.098814917383508824e-02
 3.118521156429019878e-02
 3.139105240520760620e-02
 3.160603469593096376e-02
 3.183053381797540382e-02
 3.206493770575311042e-02
 3.230964699238629556e-02
 3.256507512724281933e-02
 3.283164846151934851e-02
 3.310980629799294139e-02
 3.340000090078816541e-02
 3.370269746068790817e-02
 3.401837401134420041e-02
 3.434752129140660609e-02
 3.469064254734641195e-02
 3.504825327152182035e-02
 3.542088086978747996e-02
 3.580906425270362348e-02
 3.621335334425004188e-02
 3.663430850175822956e-02
 3.707249984062787468e-02
 3.752850645736868079e-02
 3.800291554436624475e-02
 3.849632138992792330e-02
 3.900932425710803425e-02
 3.954252913511663997e-02
 4.009654435725497346e-02
 4.067198007976016022e-02
 4.126944661633678846e-02
 4.188955262378492306e-02
 4.253290313478191170e-02
 4.320009743478700481e-02
 4.389172678095756147e-02
 4.460837196216405065e-02
 4.535060070047398223e-02
 4.611896489594451143e-02
 4.691399771820999737e-02
 4.773621055016259718e-02
 4.858608979098012065e-02
 4.946409352789718494e-02
 5.037064808839655100e-02
 5.130614448688120000e-02
 5.227093478244676517e-02
 5.326532836691527661e-02
 5.428958820503444055e-02
 5.534392705132062940e-02
 5.642850367078532103e-02
 5.754341909326794041e-02
 5.868871293362001862e-02
 5.986435981225330522e-02
 6.107026591257321696e-02
 6.230626571360148303e-02
 6.357211893742395481e-02
 6.486750775206891195e-02
 6.619203427085093572e-02
 6.754521838912405651e-02
 6.892649599868018451e-02
 7.033521761867206346e-02
 7.177064747993312788e-02
 7.323196309678044191e-02
 7.471825535698944920e-02
 7.622852915642730487e-02
 7.776170460002386486e-02
 7.931661878525347875e-02
 8.089202817825104364e-02
 8.248661158611729494e-02
 8.409897372197178145e-02
 8.572764935208662673e-02
 8.737110800692515777e-02
 8.902775923045981588e-02
 9.069595833481125524e-02
 9.237401262001455893e-02
 9.406018801215328129e-02
 9.575271606681551306e-02
 9.744980127942882986e-02
 9.914962863932941239e-02
 3.028084622110443699e-02
 3.044618427327655877e-02
 3.061896848412392833e-02
 3.079951442419846461e-02
 3.098814917383437700e-02
 3.118521156429029592e-02
 3.139105240520750212e-02
 3.160603469593089437e-02
 3.183053381797586873e-02
 3.206493770575285368e-02
 3.230964699238654536e-02
 3.256507512724304138e-02
 3.283164846151866850e-02
 3.310980629799278874e-02
 3.340000090078742989e-02
 3.370269746068795674e-02
 3.401837401134460981e-02
 3.434752129140686283e-02
 3.469064254734609276e-02
 3.504825327152216730e-02
 3.542088086978727873e-02
 3.580906425270315163e-02
 3.621335334425136027e-02
 3.663430850175714015e-02
 3.707249984062841591e-02
 3.752850645736800772e-02
 3.800291554436657088e-02
 3.849632138992706981e-02
 3.900932425710817997e-02
 3.954252913511722284e-02
 4.009654435725470978e-02
 4.067198007975995899e-02
 4.126944661633682315e-02
 4.188955262378451366e-02
 4.253290313478200885e-02
 4.320009743478702563e-02
 4.389172678095724922e-02
 4.460837196216414086e-02
 4.535060070047459979e-02
 4.611896489594347059e-02
 4.691399771820990022e-02
 4.773621055016293024e-02
 4.858608979098042596e-02
 4.946409352789638003e-02
 5.037064808839658570e-02