<VTKFile type="UnstructuredGrid" byte_order="BigEndian">
<UnstructuredGrid><Piece NumberOfPoints="651" NumberOfCells="600">
<Points>
 <DataArray type="Float32" NumberOfComponents="3" format="ascii">
 0.000000000000000000e+00 0.000000000000000000e+00 0.000000000000000000e+00
 2.916064811870455742e-03 0.000000000000000000e+00 0.000000000000000000e+00
 5.782573949545621872e-03 0.000000000000000000e+00 0.000000000000000000e+00
 8.553283289074897766e-03 0.000000000000000000e+00 0.000000000000000000e+00
 1.118811592459678650e-02 0.000000000000000000e+00 0.000000000000000000e+00
 1.365519687533378601e-02 0.000000000000000000e+00 0.000000000000000000e+00
 1.593190617859363556e-02 0.000000000000000000e+00 0.000000000000000000e+00
 1.800495572388172150e-02 0.000000000000000000e+00 0.000000000000000000e+00
 1.986964419484138489e-02 0.000000000000000000e+00 0.000000000000000000e+00
 2.152857556939125061e-02 0.000000000000000000e+00 0.000000000000000000e+00
 2.299007959663867950e-02 0.000000000000000000e+00 0.000000000000000000e+00
 2.426659129559993744e-02 0.000000000000000000e+00 0.000000000000000000e+00
 2.537315338850021362e-02 0.000000000000000000e+00 0.000000000000000000e+00
 2.632614038884639740e-02 0.000000000000000000e+00 0.000000000000000000e+00
 2.714225277304649353e-02 0.000000000000000000e+00 0.000000000000000000e+00
 2.783778868615627289e-02 0.000000000000000000e+00 0.000000000000000000e+00
 2.842812426388263702e-02 0.000000000000000000e+00 0.000000000000000000e+00
 2.892742678523063660e-02 0.000000000000000000e+00 0.000000000000000000e+00
 2.934848517179489136e-02 0.000000000000000000e+00 0.000000000000000000e+00
 2.970267832279205322e-02 0.000000000000000000e+00 0.000000000000000000e+00
 2.999999932944774628e-02 0.000000000000000000e+00 0.000000000000000000e+00
 0.000000000000000000e+00 1.282335579162463546e-04 0.000000000000000000e+00
 2.916064811870455742e-03 1.282335579162463546e-04 0.000000000000000000e+00
 5.782573949545621872e-03 1.282335579162463546e-04 0.000000000000000000e+00
 8.553283289074897766e-03 1.282335579162463546e-04 0.000000000000000000e+00
 1.118811592459678650e-02 1.282335579162463546e-04 0.000000000000000000e+00
 1.365519687533378601e-02 1.282335579162463546e-04 0.000000000000000000e+00
 1.593190617859363556e-02 1.282335579162463546e-04 0.000000000000000000e+00
 1.800495572388172150e-02 1.282335579162463546e-04 0.000000000000000000e+00
 1.986964419484138489e-02 1.282335579162463546e-04 0.000000000000000000e+00
 2.152857556939125061e-02 1.282335579162463546e-04 0.000000000000000000e+00
 2.299007959663867950e-02 1.282335579162463546e-04 0.000000000000000000e+00
 2.426659129559993744e-02 1.282335579162463546e-04 0.000000000000000000e+00
 2.537315338850021362e-02 1.282335579162463546e-04 0.000000000000000000e+00
 2.632614038884639740e-02 1.282335579162463546e-04 0.000000000000000000e+00
 2.714225277304649353e-02 1.282335579162463546e-04 0.000000000000000000e+00
 2.783778868615627289e-02 1.282335579162463546e-04 0.000000000000000000e+00
 2.842812426388263702e-02 1.282335579162463546e-04 0.000000000000000000e+00
 2.892742678523063660e-02 1.282335579162463546e-04 0.000000000000000000e+00
 2.934848517179489136e-02 1.282335579162463546e-04 0.000000000000000000e+00
 2.970267832279205322e-02 1.282335579162463546e-04 0.000000000000000000e+00
 2.999999932944774628e-02 1.282335579162463546e-04 0.000000000000000000e+00
 0.000000000000000000e+00 2.724006481003016233e-04 0.000000000000000000e+00
 2.916064811870455742e-03 2.724006481003016233e-04 0.000000000000000000e+00
 5.782573949545621872e-03 2.724006481003016233e-04 0.000000000000000000e+00
 8.553283289074897766e-03 2.724006481003016233e-04 0.000000000000000000e+00
 1.118811592459678650e-02 2.724006481003016233e-04 0.000000000000000000e+00
 1.365519687533378601e-02 2.724006481003016233e-04 0.000000000000000000e+00
 1.593190617859363556e-02 2.724006481003016233e-04 0.000000000000000000e+00
 1.800495572388172150e-02 2.724006481003016233e-04 0.000000000000000000e+00
 1.986964419484138489e-02 2.724006481003016233e-04 0.000000000000000000e+00
 2.152857556939125061e-02 2.724006481003016233e-04 0.000000000000000000e+00
 2.299007959663867950e-02 2.724006481003016233e-04 0.000000000000000000e+00
 2.426659129559993744e-02 2.724006481003016233e-04 0.000000000000000000e+00
 2.537315338850021362e-02 2.724006481003016233e-04 0.000000000000000000e+00
 2.632614038884639740e-02 2.724006481003016233e-04 0.000000000000000000e+00
 2.714225277304649353e-02 2.724006481003016233e-04 0.000000000000000000e+00
 2.783778868615627289e-02 2.724006481003016233e-04 0.000000000000000000e+00
 2.842812426388263702e-02 2.724006481003016233e-04 0.000000000000000000e+00
 2.892742678523063660e-02 2.724006481003016233e-04 0.000000000000000000e+00
 2.934848517179489136e-02 2.724006481003016233e-04 0.000000000000000000e+00
 2.970267832279205322e-02 2.724006481003016233e-04 0.000000000000000000e+00
 2.999999932944774628e-02 2.724006481003016233e-04 0.000000000000000000e+00
 0.000000000000000000e+00 4.343430919107049704e-04 0.000000000000000000e+00
 2.916064811870455742e-03 4.343430919107049704e-04 0.000000000000000000e+00
 5.782573949545621872e-03 4.343430919107049704e-04 0.000000000000000000e+00
 8.553283289074897766e-03 4.343430919107049704e-04 0.000000000000000000e+00
 1.118811592459678650e-02 4.343430919107049704e-04 0.000000000000000000e+00
 1.365519687533378601e-02 4.343430919107049704e-04 0.000000000000000000e+00
 1.593190617859363556e-02 4.343430919107049704e-04 0.000000000000000000e+00
 1.800495572388172150e-02 4.343430919107049704e-04 0.000000000000000000e+00
 1.986964419484138489e-02 4.343430919107049704e-04 0.000000000000000000e+00
 2.152857556939125061e-02 4.343430919107049704e-04 0.000000000000000000e+00
 2.299007959663867950e-02 4.343430919107049704e-04 0.000000000000000000e+00
 2.426659129559993744e-02 4.343430919107049704e-04 0.000000000000000000e+00
 2.537315338850021362e-02 4.343430919107049704e-04 0.000000000000000000e+00
 2.632614038884639740e-02 4.343430919107049704e-04 0.000000000000000000e+00
 2.714225277304649353e-02 4.343430919107049704e-04 0.000000000000000000e+00
 2.783778868615627289e-02 4.343430919107049704e-04 0.000000000000000000e+00
 2.842812426388263702e-02 4.343430919107049704e-04 0.000000000000000000e+00
 2.892742678523063660e-02 4.343430919107049704e-04 0.000000000000000000e+00
 2.934848517179489136e-02 4.343430919107049704e-04 0.000000000000000000e+00
 2.970267832279205322e-02 4.343430919107049704e-04 0.000000000000000000e+00
 2.999999932944774628e-02 4.343430919107049704e-04 0.000000000000000000e+00
 0.000000000000000000e+00 6.160786142572760582e-04 0.000000000000000000e+00
 2.916064811870455742e-03 6.160786142572760582e-04 0.000000000000000000e+00
 5.782573949545621872e-03 6.160786142572760582e-04 0.000000000000000000e+00
 8.553283289074897766e-03 6.160786142572760582e-04 0.000000000000000000e+00
 1.118811592459678650e-02 6.160786142572760582e-04 0.000000000000000000e+00
 1.365519687533378601e-02 6.160786142572760582e-04 0.000000000000000000e+00
 1.593190617859363556e-02 6.160786142572760582e-04 0.000000000000000000e+00
 1.800495572388172150e-02 6.160786142572760582e-04 0.000000000000000000e+00
 1.986964419484138489e-02 6.160786142572760582e-04 0.000000000000000000e+00
 2.152857556939125061e-02 6.160786142572760582e-04 0.000000000000000000e+00
 2.299007959663867950e-02 6.160786142572760582e-04 0.000000000000000000e+00
 2.426659129559993744e-02 6.160786142572760582e-04 0.000000000000000000e+00
 2.537315338850021362e-02 6.160786142572760582e-04 0.000000000000000000e+00
 2.632614038884639740e-02 6.160786142572760582e-04 0.000000000000000000e+00
 2.714225277304649353e-02 6.160786142572760582e-04 0.000000000000000000e+00
 2.783778868615627289e-02 6.160786142572760582e-04 0.000000000000000000e+00
 2.842812426388263702e-02 6.160786142572760582e-04 0.000000000000000000e+00
 2.892742678523063660e-02 6.160786142572760582e-04 0.000000000000000000e+00
 2.934848517179489136e-02 6.160786142572760582e-04 0.000000000000000000e+00
 2.970267832279205322e-02 6.160786142572760582e-04 0.000000000000000000e+00
 2.999999932944774628e-02 6.160786142572760582e-04 0.000000000000000000e+00
 0.000000000000000000e+00 8.198075811378657818e-04 0.000000000000000000e+00
 2.916064811870455742e-03 8.198075811378657818e-04 0.000000000000000000e+00
 5.782573949545621872e-03 8.198075811378657818e-04 0.000000000000000000e+00
 8.553283289074897766e-03 8.198075811378657818e-04 0.000000000000000000e+00
 1.118811592459678650e-02 8.198075811378657818e-04 0.000000000000000000e+00
 1.365519687533378601e-02 8.198075811378657818e-04 0.000000000000000000e+00
 1.593190617859363556e-02 8.198075811378657818e-04 0.000000000000000000e+00
 1.800495572388172150e-02 8.198075811378657818e-04 0.000000000000000000e+00
 1.986964419484138489e-02 8.198075811378657818e-04 0.000000000000000000e+00
 2.152857556939125061e-02 8.198075811378657818e-04 0.000000000000000000e+00
 2.299007959663867950e-02 8.198075811378657818e-04 0.000000000000000000e+00
 2.426659129559993744e-02 8.198075811378657818e-04 0.000000000000000000e+00
 2.537315338850021362e-02 8.198075811378657818e-04 0.000000000000000000e+00
 2.632614038884639740e-02 8.198075811378657818e-04 0.000000000000000000e+00
 2.714225277304649353e-02 8.198075811378657818e-04 0.000000000000000000e+00
 2.783778868615627289e-02 8.198075811378657818e-04 0.000000000000000000e+00
 2.842812426388263702e-02 8.198075811378657818e-04 0.000000000000000000e+00
 2.892742678523063660e-02 8.198075811378657818e-04 0.000000000000000000e+00
 2.934848517179489136e-02 8.198075811378657818e-04 0.000000000000000000e+00
 2.970267832279205322e-02 8.198075811378657818e-04 0.000000000000000000e+00
 2.999999932944774628e-02 8.198075811378657818e-04 0.000000000000000000e+00
 0.000000000000000000e+00 1.047916943207383156e-03 0.000000000000000000e+00
 2.916064811870455742e-03 1.047916943207383156e-03 0.000000000000000000e+00
[...]
<CellData>
 <DataArray Name="pos.x" type="Float32" NumberOfComponents="1" format="ascii">
 1.458032413135713955e-03
 4.349319342921553928e-03
 7.167928746956156276e-03
 9.870699673595967338e-03
 1.242165607252453813e-02
 1.479355156095936256e-02
 1.696843105060693788e-02
 1.893729965308384861e-02
 2.069910950339477404e-02
 2.225932721907899689e-02
 2.362833550513069453e-02
 2.481987261865322911e-02
 2.584964664786491492e-02
 2.673419667486201870e-02
 2.749002088806688435e-02
 2.813295636571486874e-02
 2.867777544907331930e-02
 2.913795585838873173e-02
 2.952558194885197482e-02
 2.985133925834701149e-02
 1.458032413135713955e-03
 4.349319342921551326e-03
 7.167928746956159745e-03
 9.870699673595962134e-03
 1.242165607252454854e-02
 1.479355156095934869e-02
 1.696843105060692400e-02
 1.893729965308387636e-02
 2.069910950339477751e-02
 2.225932721907892403e-02
 2.362833550513067024e-02
 2.481987261865330543e-02
 2.584964664786497737e-02
 2.673419667486192849e-02
 2.749002088806700925e-02
 2.813295636571498323e-02
 2.867777544907318746e-02
 2.913795585838856519e-02
 2.952558194885225237e-02
 2.985133925834710864e-02
 1.458032413135714389e-03
 4.349319342921550459e-03
 7.167928746956160613e-03
 9.870699673595969073e-03
 1.242165607252454507e-02
 1.479355156095936777e-02
 1.696843105060690318e-02
 1.893729965308382432e-02
 2.069910950339478098e-02
 2.225932721907894485e-02
 2.362833550513070494e-02
 2.481987261865323258e-02
 2.584964664786487329e-02
 2.673419667486206380e-02
 2.749002088806698843e-02
 2.813295636571507344e-02
 2.867777544907315623e-02
 2.913795585838886704e-02
 2.952558194885196441e-02
 2.985133925834758395e-02
 1.458032413135714389e-03
 4.349319342921550459e-03
 7.167928746956162347e-03
 9.870699673595972543e-03
 1.242165607252453119e-02
 1.479355156095936603e-02
 1.696843105060689624e-02
 1.893729965308387289e-02
 2.069910950339478792e-02
 2.225932721907896567e-02
 2.362833550513072922e-02
 2.481987261865318400e-02
 2.584964664786489064e-02
 2.673419667486219564e-02
 2.749002088806665189e-02
 2.813295636571498323e-02
 2.867777544907314929e-02
 2.913795585838857907e-02
 2.952558194885209625e-02
 2.985133925834718496e-02
 1.458032413135714172e-03
 4.349319342921547857e-03
 7.167928746956162347e-03
 9.870699673595965604e-03
 1.242165607252454680e-02
 1.479355156095936430e-02
 1.696843105060688237e-02
 1.893729965308385554e-02
 2.069910950339479833e-02
 2.225932721907893791e-02
 2.362833550513069453e-02
 2.481987261865320829e-02
 2.584964664786490104e-02
 2.673419667486211238e-02
 2.749002088806688088e-02
 2.813295636571506997e-02
 2.867777544907322215e-02
 2.913795585838874908e-02
 2.952558194885224543e-02
 2.985133925834706006e-02
 1.458032413135714389e-03
 4.349319342921549592e-03
 7.167928746956170154e-03
 9.870699673595960399e-03
 1.242165607252454854e-02
 1.479355156095938165e-02
 1.696843105060687196e-02
 1.893729965308388330e-02
 2.069910950339478445e-02
 2.225932721907897260e-02
 2.362833550513068065e-02
 2.481987261865322564e-02
 2.584964664786491839e-02
 2.673419667486209503e-02
 2.749002088806709945e-02
 2.813295636571495548e-02
 2.867777544907312501e-02
 2.913795585838849928e-02
 2.952558194885235299e-02
 2.985133925834721272e-02
 1.458032413135713955e-03
 4.349319342921551326e-03
 7.167928746956160613e-03
 9.870699673595974277e-03
 1.242165607252453639e-02
 1.479355156095938859e-02
 1.696843105060690318e-02
 1.893729965308386248e-02
 2.069910950339476363e-02
 2.225932721907895526e-02
 2.362833550513072922e-02
 2.481987261865327768e-02
 2.584964664786492533e-02
 2.673419667486190421e-02
 2.749002088806677332e-02
 2.813295636571514630e-02
 2.867777544907323603e-02
 2.913795585838871438e-02
 2.952558194885227666e-02
 2.985133925834684149e-02
 1.458032413135714606e-03
 4.349319342921553061e-03
 7.167928746956163215e-03
 9.870699673595962134e-03
 1.242165607252455201e-02
 1.479355156095936603e-02
 1.696843105060689277e-02
 1.893729965308386248e-02
 2.069910950339484343e-02
 2.225932721907891015e-02
 2.362833550513067024e-02
 2.481987261865324645e-02
 2.584964664786496696e-02
 2.673419667486196666e-02
 2.749002088806722435e-02
 2.813295636571495201e-02
 2.867777544907319440e-02
 2.913795585838863458e-02
 2.952558194885215523e-02
 2.985133925834693169e-02
 1.458032413135714172e-03
 4.349319342921552194e-03
 7.167928746956164082e-03
 9.870699673595960399e-03
 1.242165607252453813e-02
 1.479355156095936256e-02
 1.696843105060691706e-02
 1.893729965308386248e-02
 2.069910950339478098e-02
 2.225932721907894832e-02
 2.362833550513070840e-02
 2.481987261865325686e-02
 2.584964664786470676e-02
 2.673419667486218870e-02
 2.749002088806684271e-02
 2.813295636571501099e-02
 2.867777544907328113e-02
 2.913795585838876642e-02
 2.952558194885208584e-02
 2.985133925834714680e-02
 1.458032413135713738e-03
 4.349319342921553061e-03
 7.167928746956152807e-03
 9.870699673595970808e-03
 1.242165607252453813e-02
 1.479355156095937297e-02
 1.696843105060691706e-02
 1.893729965308384861e-02
 2.069910950339475322e-02
 2.225932721907899689e-02
 2.362833550513068065e-02
 2.481987261865318747e-02
 2.584964664786487676e-02
 2.673419667486209156e-02
 2.749002088806687741e-02
 2.813295636571485486e-02
 2.867777544907326726e-02
 2.913795585838880459e-02
 2.952558194885233911e-02
 2.985133925834699414e-02
 1.458032413135714172e-03
 4.349319342921549592e-03
 7.167928746956158878e-03
 9.870699673595969073e-03
 1.242165607252455027e-02
 1.479355156095935910e-02
 1.696843105060687890e-02
 1.893729965308388330e-02
 2.069910950339476363e-02
 2.225932721907900036e-02
 2.362833550513070147e-02
 2.481987261865325686e-02
 2.584964664786482125e-02
 2.673419667486213319e-02
 2.749002088806684618e-02
 2.813295636571495201e-02
 2.867777544907304521e-02
 2.913795585838896418e-02
 2.952558194885248830e-02
 2.985133925834703578e-02
 1.458032413135713955e-03
 4.349319342921550459e-03
 7.167928746956162347e-03
 9.870699673595970808e-03
 1.242165607252453119e-02
 1.479355156095936950e-02
 1.696843105060689624e-02
 1.893729965308386942e-02
 2.069910950339481567e-02
 2.225932721907896220e-02
 2.362833550513068412e-02
 2.481987261865317707e-02
 2.584964664786489064e-02
 2.673419667486198401e-02
 2.749002088806697455e-02
 2.813295636571529895e-02
 2.867777544907299317e-02
 2.913795585838870744e-02
 2.952558194885241891e-02
 2.985133925834691435e-02
 1.458032413135714606e-03
 4.349319342921550459e-03
 7.167928746956158878e-03
 9.870699673595974277e-03
 1.242165607252453813e-02
 1.479355156095935216e-02
 1.696843105060690318e-02
 1.893729965308386942e-02
 2.069910950339477404e-02
 2.225932721907898301e-02
 2.362833550513070494e-02
 2.481987261865333666e-02
 2.584964664786490104e-02
 2.673419667486202911e-02
 2.749002088806705782e-02
 2.813295636571490690e-02
 2.867777544907305562e-02
 2.913795585838887398e-02
 2.952558194885204768e-02
 2.985133925834787885e-02
 1.458032413135714389e-03
 4.349319342921551326e-03
 7.167928746956155409e-03
 9.870699673595974277e-03
 1.242165607252453813e-02
 1.479355156095938165e-02
 1.696843105060686849e-02
 1.893729965308389371e-02
 2.069910950339475322e-02
 2.225932721907898301e-02
 2.362833550513065636e-02
 2.481987261865332278e-02
 2.584964664786486982e-02
 2.673419667486198401e-02
 2.749002088806700925e-02
 2.813295636571526773e-02
 2.867777544907303827e-02
 2.913795585838859642e-02
 2.952558194885211706e-02
 2.985133925834785457e-02
 1.458032413135714172e-03
 4.349319342921551326e-03
 7.167928746956160613e-03
 9.870699673595963869e-03
 1.242165607252453813e-02
 1.479355156095937991e-02
 1.696843105060691706e-02
 1.893729965308385207e-02
 2.069910950339479833e-02
 2.225932721907900036e-02
 2.362833550513061820e-02
 2.481987261865331584e-02
 2.584964664786468247e-02
 2.673419667486208462e-02
 2.749002088806693292e-02
 2.813295636571517752e-02
 2.867777544907321174e-02
 2.913795585838853744e-02
 2.952558194885224543e-02
 2.985133925834715374e-02
 1.458032413135714822e-03
 4.349319342921551326e-03
 7.167928746956158011e-03
 9.870699673595974277e-03
 1.242165607252453466e-02
 1.479355156095936950e-02
 1.696843105060690665e-02
 1.893729965308383820e-02
 2.069910950339477751e-02
 2.225932721907901424e-02
 2.362833550513066330e-02
 2.481987261865320829e-02
 2.584964664786485594e-02
 2.673419667486223728e-02
 2.749002088806694680e-02
 2.813295636571506303e-02
 2.867777544907269827e-02
 2.913795585838881499e-02
 2.952558194885191584e-02
 2.985133925834732027e-02
 1.458032413135713521e-03
 4.349319342921553061e-03
 7.167928746956154541e-03
 9.870699673595982951e-03
 1.242165607252453813e-02
 1.479355156095935389e-02
 1.696843105060692400e-02
 1.893729965308388330e-02
 2.069910950339472894e-02
 2.225932721907899689e-02
 2.362833550513070494e-02
 2.481987261865333319e-02
 2.584964664786482125e-02
 2.673419667486203258e-02
 2.749002088806690863e-02
 2.813295636571518446e-02
 2.867777544907297929e-02
 2.913795585838866581e-02
 2.952558194885213788e-02
 2.985133925834738272e-02
 1.458032413135714822e-03
 4.349319342921551326e-03
 7.167928746956157143e-03
 9.870699673595981216e-03
 1.242165607252452945e-02
 1.479355156095937991e-02
 1.696843105060690665e-02
 1.893729965308385207e-02
 2.069910950339478445e-02
 2.225932721907890321e-02
 2.362833550513069800e-02
 2.481987261865334707e-02
 2.584964664786479696e-02
 2.673419667486195625e-02
 2.749002088806690169e-02
 2.813295636571506303e-02
 2.867777544907330889e-02
 2.913795585838880459e-02
 2.952558194885260626e-02
 2.985133925834649454e-02
 1.458032413135713955e-03
 4.349319342921553928e-03
 7.167928746956158011e-03
 9.870699673595970808e-03
 1.242165607252454160e-02
 1.479355156095936950e-02
 1.696843105060692053e-02
 1.893729965308386942e-02
 2.069910950339476016e-02
 2.225932721907901424e-02
 2.362833550513068412e-02
 2.481987261865325339e-02
 2.584964664786490798e-02
 2.673419667486202564e-02
 2.749002088806693292e-02
 2.813295636571521915e-02
 2.867777544907337828e-02
 2.913795585838867622e-02
 2.952558194885209278e-02
 2.985133925834691088e-02
 1.458032413135714606e-03
 4.349319342921550459e-03
 7.167928746956162347e-03
 9.870699673595963869e-03
 1.242165607252454333e-02
 1.479355156095937644e-02
 1.696843105060689277e-02
 1.893729965308387983e-02
 2.069910950339473588e-02
 2.225932721907895873e-02
 2.362833550513068759e-02
 2.481987261865331584e-02
 2.584964664786496696e-02
 2.673419667486190421e-02
 2.749002088806699190e-02
 2.813295636571487221e-02
 2.867777544907323603e-02
 2.913795585838881846e-02
 2.952558194885246054e-02
 2.985133925834719190e-02
 1.458032413135713955e-03
 4.349319342921552194e-03
 7.167928746956163215e-03
 9.870699673595970808e-03
 1.242165607252453639e-02
 1.479355156095936430e-02
 1.696843105060689277e-02
 1.893729965308388677e-02
 2.069910950339479833e-02
 2.225932721907894832e-02
 2.362833550513067718e-02
 2.481987261865316666e-02
 2.584964664786504676e-02
 2.673419667486193196e-02
 2.749002088806680108e-02
 2.813295636571515324e-02
 2.867777544907299317e-02
 2.913795585838880459e-02
 2.952558194885195747e-02
 2.985133925834727517e-02
 1.458032413135714389e-03
 4.349319342921552194e-03
 7.167928746956162347e-03
 9.870699673595963869e-03
 1.242165607252453466e-02
 1.479355156095937124e-02
 1.696843105060688237e-02
 1.893729965308387289e-02
 2.069910950339477751e-02
 2.225932721907899689e-02
 2.362833550513064942e-02
 2.481987261865335054e-02
 2.584964664786489758e-02
 2.673419667486197013e-02
 2.749002088806698496e-02
 2.813295636571492425e-02
 2.867777544907321521e-02
 2.913795585838850968e-02
 2.952558194885189155e-02
 2.985133925834750068e-02
 1.458032413135714606e-03
 4.349319342921549592e-03
 7.167928746956158011e-03
 9.870699673595969073e-03
 1.242165607252453639e-02
 1.479355156095936603e-02
 1.696843105060687890e-02
 1.893729965308386595e-02
 2.069910950339476710e-02
 2.225932721907898301e-02
 2.362833550513067718e-02
 2.481987261865330543e-02
 2.584964664786477961e-02
 2.673419667486213319e-02
 2.749002088806704741e-02
 2.813295636571480282e-02
 2.867777544907315970e-02
 2.913795585838837437e-02
 2.952558194885175971e-02
 2.985133925834786844e-02
 1.458032413135715039e-03
 4.349319342921551326e-03
 7.167928746956158011e-03
 9.870699673595967338e-03
 1.242165607252454680e-02
 1.479355156095936603e-02
 1.696843105060691012e-02
 1.893729965308386248e-02
 2.069910950339479139e-02
 2.225932721907896913e-02
 2.362833550513073269e-02
 2.481987261865323258e-02
 2.584964664786484900e-02
 2.673419667486203952e-02
 2.749002088806704741e-02
 2.813295636571488609e-02
 2.867777544907334705e-02
 2.913795585838812804e-02
 2.952558194885182216e-02
 2.985133925834744170e-02
 1.458032413135714389e-03
 4.349319342921550459e-03
 7.167928746956159745e-03
 9.870699673595970808e-03
 1.242165607252453986e-02
 1.479355156095936430e-02
 1.696843105060690665e-02
 1.893729965308385207e-02
 2.069910950339479833e-02
 2.225932721907891709e-02
 2.362833550513065289e-02
 2.481987261865335054e-02
 2.584964664786483859e-02
 2.673419667486197360e-02
 2.749002088806701272e-02
 2.813295636571505262e-02
 2.867777544907346154e-02
 2.913795585838806906e-02
 2.952558194885275197e-02
 2.985133925834734456e-02
 1.458032413135712871e-03
 4.349319342921551326e-03
 7.167928746956161480e-03
 9.870699673595965604e-03
 1.242165607252453813e-02
 1.479355156095934869e-02
 1.696843105060690665e-02
 1.893729965308384167e-02
 2.069910950339478445e-02
 2.225932721907898995e-02
 2.362833550513061473e-02
 2.481987261865329850e-02
 2.584964664786479349e-02
 2.673419667486215748e-02
 2.749002088806667271e-02
 2.813295636571506997e-02
 2.867777544907335746e-02
 2.913795585838839866e-02
 2.952558194885186033e-02
 2.985133925834728905e-02
 1.458032413135715039e-03
 4.349319342921549592e-03
 7.167928746956158878e-03
 9.870699673595967338e-03
 1.242165607252453639e-02
 1.479355156095936430e-02
 1.696843105060692053e-02
 1.893729965308387289e-02
 2.069910950339473935e-02
 2.225932721907902812e-02
 2.362833550513067024e-02
 2.481987261865332625e-02
 2.584964664786487329e-02
 2.673419667486207074e-02
 2.749002088806678373e-02
 2.813295636571531283e-02
 2.867777544907312501e-02
 2.913795585838820437e-02
 2.952558194885248483e-02
 2.985133925834755272e-02
 1.458032413135713955e-03
 4.349319342921551326e-03
 7.167928746956155409e-03
 9.870699673595967338e-03
 1.242165607252452945e-02
 1.479355156095937471e-02
 1.696843105060689624e-02
 1.893729965308383473e-02
 2.069910950339475669e-02
 2.225932721907904546e-02
 2.362833550513063208e-02
 2.481987261865332972e-02
 2.584964664786484553e-02
 2.673419667486207768e-02
 2.749002088806696067e-02
 2.813295636571512548e-02
 2.867777544907331236e-02
 2.913795585838888785e-02
 2.952558194885200604e-02
 2.985133925834701843e-02
 1.458032413135713088e-03
 4.349319342921551326e-03
 7.167928746956157143e-03
 9.870699673595967338e-03
 1.242165607252453986e-02
 1.479355156095936430e-02
 1.696843105060693094e-02
 1.893729965308383126e-02
 2.069910950339479833e-02
 2.225932721907896913e-02
 2.362833550513072228e-02
 2.481987261865318053e-02
 2.584964664786489064e-02
 2.673419667486213319e-02
 2.749002088806691210e-02
 2.813295636571504568e-02
 2.867777544907310072e-02
 2.913795585838909255e-02
 2.952558194885158971e-02
 2.985133925834735844e-02
 1.458032413135715039e-03
 4.349319342921549592e-03
 7.167928746956157143e-03
 9.870699673595972543e-03
 1.242165607252454333e-02
 1.479355156095935389e-02
 1.696843105060692400e-02
 1.893729965308384167e-02
 2.069910950339477404e-02
 2.225932721907900383e-02
 2.362833550513068065e-02
 2.481987261865327421e-02
 2.584964664786481084e-02
 2.673419667486205339e-02
 2.749002088806698496e-02
 2.813295636571502834e-02
 2.867777544907346848e-02
 2.913795585838864152e-02
 2.952558194885212400e-02
 2.985133925834737578e-02
 </DataArray>
 <DataArray Name="pos.y" type="Float32" NumberOfComponents="1" format="ascii">
 6.411677893445211652e-05
 6.411677893445214362e-05
 6.411677893445210297e-05
 6.411677893445213007e-05
 6.411677893445211652e-05
 6.411677893445210297e-05
 6.411677893445221139e-05
 6.411677893445211652e-05
 6.411677893445213007e-05
 6.411677893445214362e-05
 6.411677893445203520e-05
 6.411677893445211652e-05
 6.411677893445218428e-05
 6.411677893445210297e-05
 6.411677893445202165e-05
 6.411677893445184547e-05
 6.411677893445263151e-05
 6.411677893445211652e-05
 6.411677893445191323e-05
 6.411677893445189968e-05
 2.003170990051250753e-04
 2.003170990051250753e-04
 2.003170990051250753e-04
 2.003170990051249668e-04
 2.003170990051251295e-04
 2.003170990051249939e-04
 2.003170990051251566e-04
 2.003170990051253734e-04
 2.003170990051250753e-04
 2.003170990051246958e-04
 2.003170990051248855e-04
 2.003170990051255089e-04
 2.003170990051254276e-04
 2.003170990051244247e-04
 2.003170990051259697e-04
 2.003170990051238284e-04
 2.003170990051262950e-04
 2.003170990051238826e-04
 2.003170990051262679e-04
 2.003170990051240453e-04
 3.533718597338719324e-04
 3.533718597338718782e-04
 3.533718597338720950e-04
 3.533718597338718782e-04
 3.533718597338721492e-04
 3.533718597338723661e-04
 3.533718597338720950e-04
 3.533718597338714445e-04
 3.533718597338720408e-04
 3.533718597338714987e-04
 3.533718597338720950e-04
 3.533718597338713903e-04
 3.533718597338726913e-04
 3.533718597338705771e-04
 3.533718597338737755e-04
 3.533718597338725829e-04
 3.533718597338716071e-04
 3.533718597338738839e-04
 3.533718597338696013e-04
 3.533718597338768113e-04
 5.252108385711750857e-04
 5.252108385711751941e-04
 5.252108385711754110e-04
 5.252108385711750857e-04
 5.252108385711747604e-04
 5.252108385711753025e-04
 5.252108385711753025e-04
 5.252108385711751941e-04
 5.252108385711753025e-04
 5.252108385711751941e-04
 5.252108385711757362e-04
 5.252108385711741099e-04
 5.252108385711759531e-04
 5.252108385711766036e-04
 5.252108385711691226e-04
 5.252108385711756278e-04
 5.252108385711740015e-04
 5.252108385711731341e-04
 5.252108385711722668e-04
 5.252108385711783383e-04
 7.179430794895020783e-04
 7.179430794895020783e-04
 7.179430794895021867e-04
 7.179430794895024035e-04
 7.179430794895027288e-04
 7.179430794895027288e-04
 7.179430794895017530e-04
 7.179430794895017530e-04
 7.179430794895031625e-04
 7.179430794895013193e-04
 7.179430794895009941e-04
 7.179430794895018614e-04
 7.179430794895031625e-04
 7.179430794895030540e-04
 7.179430794895031625e-04
 7.179430794894983920e-04
 7.179430794895050056e-04
 7.179430794895043551e-04
 7.179430794894990425e-04
 7.179430794895031625e-04
 9.338622597884616147e-04
 9.338622597884624820e-04
 9.338622597884624820e-04
 9.338622597884608557e-04
 9.338622597884620484e-04
 9.338622597884626989e-04
 9.338622597884609642e-04
 9.338622597884625905e-04
 9.338622597884618315e-04
 9.338622597884621568e-04
 9.338622597884597715e-04
 9.338622597884590126e-04
 9.338622597884648673e-04
 9.338622597884635662e-04
 9.338622597884637831e-04
 9.338622597884542421e-04
 9.338622597884677946e-04
 9.338622597884540253e-04
 9.338622597884692041e-04
 9.338622597884597715e-04
 1.175448770472211149e-03
 1.175448770472210499e-03
 1.175448770472211800e-03
 1.175448770472211583e-03
 1.175448770472210282e-03
 1.175448770472213101e-03
 1.175448770472212450e-03
 1.175448770472212016e-03
 1.175448770472209414e-03
 1.175448770472211800e-03
 1.175448770472210282e-03
 1.175448770472212016e-03
 1.175448770472214402e-03
 1.175448770472206812e-03
 1.175448770472208113e-03
 1.175448770472215920e-03
 1.175448770472216787e-03
 1.175448770472212233e-03
 1.175448770472206379e-03
 1.175448770472206812e-03
 1.445367388300478496e-03
 1.445367388300478496e-03
 1.445367388300478929e-03
 1.445367388300478062e-03
 1.445367388300478279e-03
 1.445367388300477845e-03
 1.445367388300476110e-03
 1.445367388300477628e-03
 1.445367388300481531e-03
 1.445367388300476110e-03
 1.445367388300474809e-03
 1.445367388300476978e-03
 1.445367388300481531e-03
 1.445367388300472207e-03
 1.445367388300493241e-03
 1.445367388300473942e-03
 1.445367388300484350e-03
 1.445367388300473942e-03
 1.445367388300472641e-03
 1.445367388300476327e-03
 1.746459228007584069e-03
 1.746459228007583419e-03