<VTKFile type="UnstructuredGrid" byte_order="BigEndian">
<UnstructuredGrid><Piece NumberOfPoints="33" NumberOfCells="20">
<Points>
 <DataArray type="Float32" NumberOfComponents="3" format="ascii">
 2.999999932944774628e-02 0.000000000000000000e+00 0.000000000000000000e+00
 3.009999915957450867e-02 0.000000000000000000e+00 0.000000000000000000e+00
 3.020000085234642029e-02 0.000000000000000000e+00 0.000000000000000000e+00
 2.999999932944774628e-02 2.000000094994902611e-03 0.000000000000000000e+00
 3.009999915957450867e-02 2.000000094994902611e-03 0.000000000000000000e+00
 3.020000085234642029e-02 2.000000094994902611e-03 0.000000000000000000e+00
 2.999999932944774628e-02 4.000000189989805222e-03 0.000000000000000000e+00
 3.009999915957450867e-02 4.000000189989805222e-03 0.000000000000000000e+00
 3.020000085234642029e-02 4.000000189989805222e-03 0.000000000000000000e+00
 2.999999932944774628e-02 6.000000052154064178e-03 0.000000000000000000e+00
 3.009999915957450867e-02 6.000000052154064178e-03 0.000000000000000000e+00
 3.020000085234642029e-02 6.000000052154064178e-03 0.000000000000000000e+00
 2.999999932944774628e-02 8.000000379979610443e-03 0.000000000000000000e+00
 3.009999915957450867e-02 8.000000379979610443e-03 0.000000000000000000e+00
 3.020000085234642029e-02 8.000000379979610443e-03 0.000000000000000000e+00
 2.999999932944774628e-02 9.999999776482582092e-03 0.000000000000000000e+00
 3.009999915957450867e-02 9.999999776482582092e-03 0.000000000000000000e+00
 3.020000085234642029e-02 9.999999776482582092e-03 0.000000000000000000e+00
 2.999999932944774628e-02 1.200000010430812836e-02 0.000000000000000000e+00
 3.009999915957450867e-02 1.200000010430812836e-02 0.000000000000000000e+00
 3.020000085234642029e-02 1.200000010430812836e-02 0.000000000000000000e+00
 2.999999932944774628e-02 1.400000043213367462e-02 0.000000000000000000e+00
 3.009999915957450867e-02 1.400000043213367462e-02 0.000000000000000000e+00
 3.020000085234642029e-02 1.400000043213367462e-02 0.000000000000000000e+00
 2.999999932944774628e-02 1.600000075995922089e-02 0.000000000000000000e+00
 3.009999915957450867e-02 1.600000075995922089e-02 0.000000000000000000e+00
 3.020000085234642029e-02 1.600000075995922089e-02 0.000000000000000000e+00
 2.999999932944774628e-02 1.799999922513961792e-02 0.000000000000000000e+00
 3.009999915957450867e-02 1.799999922513961792e-02 0.000000000000000000e+00
 3.020000085234642029e-02 1.799999922513961792e-02 0.000000000000000000e+00
 2.999999932944774628e-02 1.999999955296516418e-02 0.000000000000000000e+00
 3.009999915957450867e-02 1.999999955296516418e-02 0.000000000000000000e+00
 3.020000085234642029e-02 1.999999955296516418e-02 0.000000000000000000e+00
 </DataArray>
</Points>
<Cells>
 <DataArray type="Int32" Name="connectivity" format="ascii">
 0 1 4 3
 1 2 5 4
 3 4 7 6
 4 5 8 7
 6 7 10 9
 7 8 11 10
 9 10 13 12
 10 11 14 13
 12 13 16 15
 13 14 17 16
 15 16 19 18
 16 17 20 19
 18 19 22 21
 19 20 23 22
 21 22 25 24
 22 23 26 25
 24 25 28 27
 25 26 29 28
 27 28 31 30
 28 29 32 31
 </DataArray>
 <DataArray type="Int32" Name="offsets" format="ascii">
 4
 8
 12
 16
 20
 24
 28
 32
 36
 40
 44
 48
 52
 56
 60
 64
 68
 72
 76
 80
 </DataArray>
 <DataArray type="UInt8" Name="types" format="ascii">
 9
 9
 9
 9
 9
 9
 9
 9
 9
 9
 9
 9
 9
 9
 9
 9
 9
 9
 9
 9
 </DataArray>
</Cells>
<CellData>
 <DataArray Name="pos.x" type="Float32" NumberOfComponents="1" format="ascii">
 3.004999999999835580e-02
 3.015000000000096075e-02
 3.004999999999937582e-02
 3.015000000000064850e-02
 3.004999999999804702e-02
 3.015000000000096075e-02
 3.004999999999945562e-02
 3.015000000000057218e-02
 3.004999999999937582e-02
 3.014999999999994074e-02
 3.004999999999906010e-02
 3.014999999999923644e-02
 3.004999999999945562e-02
 3.015000000000057218e-02
 3.004999999999906010e-02
 3.015000000000025299e-02
 3.005000000000008012e-02
 3.014999999999821295e-02
 3.005000000000008012e-02
 3.014999999999923644e-02
 </DataArray>
 <DataArray Name="pos.y" type="Float32" NumberOfComponents="1" format="ascii">
 1.000000000000005225e-03
 1.000000000000001756e-03
 3.000000000000059043e-03
 3.000000000000020445e-03
 4.999999999999872602e-03
 5.000000000000083371e-03
 6.999999999999910807e-03
 7.000000000000130250e-03
 9.000000000000193609e-03
 8.999999999999876155e-03
 1.100000000000008089e-02
 1.099999999999965589e-02
 1.299999999999984154e-02
 1.300000000000024400e-02
 1.500000000000006710e-02
 1.500000000000000812e-02
 1.700000000000037939e-02
 1.699999999999919978e-02
 1.900000000000041586e-02
 1.899999999999970463e-02
 </DataArray>
 <DataArray Name="pos.z" type="Float32" NumberOfComponents="1" format="ascii">
 0.000000000000000000e+00
 0.000000000000000000e+00
 0.000000000000000000e+00
 0.000000000000000000e+00
 0.000000000000000000e+00
 0.000000000000000000e+00
 0.000000000000000000e+00
 0.000000000000000000e+00
 0.000000000000000000e+00
 0.000000000000000000e+00
 0.000000000000000000e+00
 0.000000000000000000e+00
 0.000000000000000000e+00
 0.000000000000000000e+00
 0.000000000000000000e+00
 0.000000000000000000e+00
 0.000000000000000000e+00
 0.000000000000000000e+00
 0.000000000000000000e+00
 0.000000000000000000e+00
 </DataArray>
 <DataArray Name="volume" type="Float32" NumberOfComponents="1" format="ascii">
 2.000000000000126735e-10
 1.999999999999848854e-10
 6.000000000000263624e-10
 5.999999999999779723e-10
 1.000000000000066650e-09
 9.999999999999392645e-10
 1.400000000000110971e-09
 1.399999999999870261e-09
 1.800000000000082499e-09
 1.799999999999897004e-09
 2.200000000000144191e-09
 2.199999999999835652e-09
 2.600000000000207743e-09
 2.599999999999759825e-09
 3.000000000000188164e-09
 2.999999999999769610e-09
 3.400000000000158658e-09
 3.399999999999807520e-09
 3.800000000000175475e-09
 3.799999999999775947e-09
 </DataArray>
 <DataArray Name="rho" type="Float32" NumberOfComponents="1" format="ascii">
 1.574607744308810509e-01
 1.574607752853303122e-01
 1.574608177865340908e-01
 1.574608174163247554e-01
 1.574608199101795725e-01
 1.574608199146667609e-01
 1.574608198081197674e-01
 1.574608198085053201e-01
 1.574608197216439132e-01
 1.574608197217282346e-01
 1.574608196923303338e-01
 1.574608196922010206e-01
 1.574608196963781237e-01
 1.574608196963646622e-01
 1.574608197937910903e-01
 1.574608197947465205e-01
 1.574608202174854754e-01
 1.574608202216267461e-01
 1.574608216631444291e-01
 1.574608216744758649e-01
 </DataArray>
 <DataArray Name="vel.x" type="Float32" NumberOfComponents="1" format="ascii">
 9.985701188908265976e+03
 9.985701188667497263e+03
 9.985701177307486432e+03
 9.985701177429104064e+03
 9.985701176731397936e+03
 9.985701176743907126e+03
 9.985701176758526344e+03
 9.985701176772896360e+03
 9.985701176782084076e+03
 9.985701176796545042e+03
 9.985701176789803867e+03
 9.985701176804239367e+03
 9.985701176788656085e+03
 9.985701176803120688e+03
 9.985701176762748219e+03
 9.985701176776954526e+03
 9.985701176648808541e+03
 9.985701176662119906e+03
 9.985701176261467481e+03
 9.985701176272650628e+03
 </DataArray>
 <DataArray Name="vel.y" type="Float32" NumberOfComponents="1" format="ascii">
 -6.163221696690426897e-04
 -1.585556927551203281e-03
 1.289825309395312787e-04
 1.273790501659712319e-04
 8.232891089878606179e-05
 8.254156786311671280e-05
 5.816005040455822517e-05
 5.829741211464700180e-05
 4.485522466393149124e-05
 4.496129721849266147e-05
 3.658095946819883254e-05
 3.666718336067717997e-05
 3.089685593037071898e-05
 3.096930556851400836e-05
 2.643214903001258091e-05
 2.649252330841064273e-05
 2.140842767696741401e-05
 2.145138239639503099e-05
 1.341577720618064508e-05
 1.343691272359821166e-05
 </DataArray>
 <DataArray Name="vel.z" type="Float32" NumberOfComponents="1" format="ascii">
 0.000000000000000000e+00
 0.000000000000000000e+00
 0.000000000000000000e+00
 0.000000000000000000e+00
 0.000000000000000000e+00
 0.000000000000000000e+00
 0.000000000000000000e+00
 0.000000000000000000e+00
 0.000000000000000000e+00
 0.000000000000000000e+00
 0.000000000000000000e+00
 0.000000000000000000e+00
 0.000000000000000000e+00
 0.000000000000000000e+00
 0.000000000000000000e+00
 0.000000000000000000e+00
 0.000000000000000000e+00
 0.000000000000000000e+00
 0.000000000000000000e+00
 0.000000000000000000e+00
 </DataArray>
 <DataArray Name="p" type="Float32" NumberOfComponents="1" format="ascii">
 5.000000363215514517e+04
 5.000000398657156620e+04
 5.000002190279374190e+04
 5.000002172506414354e+04
 5.000002280105763202e+04
 5.000002278050698806e+04
 5.000002275807526166e+04
 5.000002273554977728e+04
 5.000002272153606464e+04
 5.000002269893683842e+04
 5.000002270916429552e+04
 5.000002268649687176e+04
 5.000002271091267903e+04
 5.000002268827782245e+04
 5.000002275192640082e+04
 5.000002272955838271e+04
 5.000002293070957967e+04
 5.000002290970385366e+04
 5.000002354022218788e+04
 5.000002352232488920e+04
 </DataArray>
 <DataArray Name="a" type="Float32" NumberOfComponents="1" format="ascii">
 6.494018448132984531e+02
 6.494018453245323599e+02
 6.494018725206618683e+02
 6.494018721504506857e+02
 6.494018738983221510e+02
 6.494018737631203066e+02
 6.494018738332646308e+02
 6.494018736939258361e+02
 6.494018737774027841e+02
 6.494018736381987082e+02
 6.494018737585546432e+02
 6.494018736193482937e+02
 6.494018737614034080e+02
 6.494018736221711379e+02
 6.494018738234273087e+02
 6.494018736839440180e+02
 6.494018740956307738e+02
 6.494018739583046909e+02
 6.494018750213128897e+02
 6.494018748890641746e+02
 </DataArray>
 <DataArray Name="mu" type="Float32" NumberOfComponents="1" format="ascii">
 4.587108241740580792e-05
 4.587108246714962024e-05
 4.587108511337157301e-05
 4.587108507734950470e-05
 4.587108524741991726e-05
 4.587108523426457402e-05
 4.587108524108971479e-05
 4.587108522753184116e-05
 4.587108523565425016e-05
 4.587108522210948860e-05
 4.587108523382030863e-05
 4.587108522027534378e-05
 4.587108523409753235e-05
 4.587108522055002640e-05
 4.587108524013249980e-05
 4.587108522656057220e-05
 4.587108526661833237e-05
 4.587108525325631986e-05
 4.587108535668846850e-05
 4.587108534382049305e-05
 </DataArray>
 <DataArray Name="k" type="Float32" NumberOfComponents="1" format="ascii">
 7.099155724364084041e-02
 7.099155733571255178e-02
 7.099156223365417351e-02
 7.099156216698027100e-02
 7.099156248176669015e-02
 7.099156245741722326e-02
 7.099156247005002085e-02
 7.099156244495551105e-02
 7.099156245998945736e-02
 7.099156243491920593e-02
 7.099156245659496434e-02
 7.099156243152435208e-02
 7.099156245710805391e-02
 7.099156243203270933e-02
 7.099156246827834083e-02
 7.099156244315782405e-02
 7.099156251730141809e-02
 7.099156249256939610e-02
 7.099156268401395076e-02
 7.099156266019636397e-02
 </DataArray>
 <DataArray Name="mu_t" type="Float32" NumberOfComponents="1" format="ascii">
 0.000000000000000000e+00
 0.000000000000000000e+00
 0.000000000000000000e+00
 0.000000000000000000e+00
 0.000000000000000000e+00
 0.000000000000000000e+00
 0.000000000000000000e+00
 0.000000000000000000e+00
 0.000000000000000000e+00
 0.000000000000000000e+00
 0.000000000000000000e+00
 0.000000000000000000e+00
 0.000000000000000000e+00
 0.000000000000000000e+00
 0.000000000000000000e+00
 0.000000000000000000e+00
 0.000000000000000000e+00
 0.000000000000000000e+00
 0.000000000000000000e+00
 0.000000000000000000e+00
 </DataArray>
 <DataArray Name="k_t" type="Float32" NumberOfComponents="1" format="ascii">
 0.000000000000000000e+00
 0.000000000000000000e+00
 0.000000000000000000e+00
 0.000000000000000000e+00
 0.000000000000000000e+00
 0.000000000000000000e+00
 0.000000000000000000e+00
 0.000000000000000000e+00
 0.000000000000000000e+00
 0.000000000000000000e+00
 0.000000000000000000e+00
 0.000000000000000000e+00
 0.000000000000000000e+00
 0.000000000000000000e+00
 0.000000000000000000e+00
 0.000000000000000000e+00
 0.000000000000000000e+00
 0.000000000000000000e+00
 0.000000000000000000e+00
 0.000000000000000000e+00
 </DataArray>
 <DataArray Name="S" type="Float32" NumberOfComponents="1" format="ascii">
 1.000000000000000000e+00
 1.000000000000000000e+00
 0.000000000000000000e+00
 0.000000000000000000e+00
 0.000000000000000000e+00
 0.000000000000000000e+00
 0.000000000000000000e+00
 0.000000000000000000e+00
 0.000000000000000000e+00
 0.000000000000000000e+00
 0.000000000000000000e+00
 0.000000000000000000e+00
 0.000000000000000000e+00
 0.000000000000000000e+00
 0.000000000000000000e+00
 0.000000000000000000e+00
 0.000000000000000000e+00
 0.000000000000000000e+00
 0.000000000000000000e+00
 0.000000000000000000e+00
 </DataArray>
 <DataArray Name="tke" type="Float32" NumberOfComponents="1" format="ascii">
 0.000000000000000000e+00
 0.000000000000000000e+00
 0.000000000000000000e+00
 0.000000000000000000e+00
 0.000000000000000000e+00
 0.000000000000000000e+00
 0.000000000000000000e+00
 0.000000000000000000e+00
 0.000000000000000000e+00
 0.000000000000000000e+00
 0.000000000000000000e+00
 0.000000000000000000e+00
 0.000000000000000000e+00
 0.000000000000000000e+00
 0.000000000000000000e+00
 0.000000000000000000e+00
 0.000000000000000000e+00
 0.000000000000000000e+00
 0.000000000000000000e+00
 0.000000000000000000e+00
 </DataArray>
 <DataArray Name="omega" type="Float32" NumberOfComponents="1" format="ascii">
 1.000000000000000000e+00
 1.000000000000000000e+00
 1.000000000000000000e+00
 1.000000000000000000e+00
 1.000000000000000000e+00
 1.000000000000000000e+00
 1.000000000000000000e+00
 1.000000000000000000e+00
 1.000000000000000000e+00
 1.000000000000000000e+00
 1.000000000000000000e+00
 1.000000000000000000e+00
 1.000000000000000000e+00
 1.000000000000000000e+00
 1.000000000000000000e+00
 1.000000000000000000e+00
 1.000000000000000000e+00
 1.000000000000000000e+00
 1.000000000000000000e+00
 1.000000000000000000e+00
 </DataArray>
 <DataArray Name="massf[0]-H2" type="Float32" NumberOfComponents="1" format="ascii">
 0.000000000000000000e+00
 0.000000000000000000e+00
 0.000000000000000000e+00
 0.000000000000000000e+00
 0.000000000000000000e+00
 0.000000000000000000e+00
 0.000000000000000000e+00
 0.000000000000000000e+00
 0.000000000000000000e+00
 0.000000000000000000e+00
 0.000000000000000000e+00
 0.000000000000000000e+00
 0.000000000000000000e+00
 0.000000000000000000e+00
 0.000000000000000000e+00
 0.000000000000000000e+00
 0.000000000000000000e+00
 0.000000000000000000e+00
 0.000000000000000000e+00
 0.000000000000000000e+00
 </DataArray>
 <DataArray Name="massf[1]-O2" type="Float32" NumberOfComponents="1" format="ascii">
 2.199999999999991684e-01
 2.199999999999991407e-01
 2.199999999999985856e-01
 2.199999999999986411e-01
 2.200000000000006950e-01
 2.200000000000005840e-01
 2.200000000000006950e-01
 2.200000000000007783e-01
 2.199999999999980860e-01
 2.199999999999979750e-01
 2.200000000000003897e-01
 2.200000000000004174e-01
 2.200000000000018607e-01
 2.200000000000018052e-01
 2.199999999999983358e-01
 2.199999999999982525e-01
 2.200000000000038869e-01
 2.200000000000038036e-01
 2.200000000000001121e-01
 2.200000000000000844e-01
 </DataArray>
 <DataArray Name="massf[2]-N2" type="Float32" NumberOfComponents="1" format="ascii">
 7.800000000000008038e-01
 7.800000000000006928e-01
 7.800000000000014699e-01
 7.800000000000013589e-01
 7.799999999999993605e-01
 7.799999999999994715e-01
 7.799999999999992495e-01
 7.799999999999992495e-01
 7.800000000000019140e-01
 7.800000000000020250e-01
 7.799999999999995826e-01
 7.799999999999995826e-01
 7.799999999999981393e-01
 7.799999999999982503e-01
 7.800000000000015810e-01
 7.800000000000016920e-01
 7.799999999999960298e-01
 7.799999999999961409e-01
 7.799999999999999156e-01
 7.800000000000000266e-01
 </DataArray>
 <DataArray Name="dt_chem" type="Float32" NumberOfComponents="1" format="ascii">
 -1.000000000000000000e+00
 -1.000000000000000000e+00
 -1.000000000000000000e+00
 -1.000000000000000000e+00
 -1.000000000000000000e+00
 -1.000000000000000000e+00
 -1.000000000000000000e+00
 -1.000000000000000000e+00
 -1.000000000000000000e+00
 -1.000000000000000000e+00
 -1.000000000000000000e+00
 -1.000000000000000000e+00
 -1.000000000000000000e+00
 -1.000000000000000000e+00
 -1.000000000000000000e+00
 -1.000000000000000000e+00
 -1.000000000000000000e+00
 -1.000000000000000000e+00
 -1.000000000000000000e+00
 -1.000000000000000000e+00
 </DataArray>
 <DataArray Name="u" type="Float32" NumberOfComponents="1" format="ascii">
 5.521284656890771585e+05
 5.521284672975077992e+05
 5.521285528612661874e+05
 5.521285516965177376e+05
 5.521285571956259664e+05
 5.521285567702569533e+05
 5.521285569909433834e+05
 5.521285565525591373e+05
 5.521285568151919870e+05
 5.521285563772311434e+05
 5.521285567558924668e+05
 5.521285563179251039e+05
 5.521285567648557480e+05
 5.521285563268061960e+05
 5.521285569599929731e+05
 5.521285565211533103e+05
 5.521285578163929749e+05
 5.521285573843414895e+05
 5.521285607287497260e+05
 5.521285603126724018e+05
 </DataArray>
 <DataArray Name="T" type="Float32" NumberOfComponents="1" format="ascii">
 1.100000396037351265e+03
 1.100000397865443801e+03
 1.100000495114561090e+03
 1.100000493790743576e+03
 1.100000500040860061e+03
 1.100000499557399053e+03
 1.100000499808224276e+03
 1.100000499309970110e+03
 1.100000499608470363e+03
 1.100000499110698229e+03
 1.100000499541072713e+03
 1.100000499043292621e+03
 1.100000499551259963e+03
 1.100000499053386875e+03
 1.100000499773047295e+03
 1.100000499274276535e+03
 1.100000500746405123e+03
 1.100000500255348470e+03
 1.100000504056499267e+03
 1.100000503583598402e+03
 </DataArray>
 <DataArray Name="vel.vector" type="Float32" NumberOfComponents="3" format="ascii">
 9.985701171875000000e+03 -6.163221551105380058e-04 0.000000000000000000e+00
 9.985701171875000000e+03 -1.585556892678141594e-03 0.000000000000000000e+00
 9.985701171875000000e+03 1.289825304411351681e-04 0.000000000000000000e+00
 9.985701171875000000e+03 1.273790549021214247e-04 0.000000000000000000e+00
 9.985701171875000000e+03 8.232890832005068660e-05 0.000000000000000000e+00
 9.985701171875000000e+03 8.254157000919803977e-05 0.000000000000000000e+00
 9.985701171875000000e+03 5.816005068481899798e-05 0.000000000000000000e+00
 9.985701171875000000e+03 5.829741348861716688e-05 0.000000000000000000e+00
 9.985701171875000000e+03 4.485522367758676410e-05 0.000000000000000000e+00
 9.985701171875000000e+03 4.496129622566513717e-05 0.000000000000000000e+00
 9.985701171875000000e+03 3.658096102299168706e-05 0.000000000000000000e+00
 9.985701171875000000e+03 3.666718475869856775e-05 0.000000000000000000e+00
 9.985701171875000000e+03 3.089685560553334653e-05 0.000000000000000000e+00
 9.985701171875000000e+03 3.096930595347657800e-05 0.000000000000000000e+00
 9.985701171875000000e+03 2.643214975250884891e-05 0.000000000000000000e+00
 9.985701171875000000e+03 2.649252382980193943e-05 0.000000000000000000e+00
 9.985701171875000000e+03 2.140842843800783157e-05 0.000000000000000000e+00
 9.985701171875000000e+03 2.145138205378316343e-05 0.000000000000000000e+00
 9.985701171875000000e+03 1.341577717539621517e-05 0.000000000000000000e+00
 9.985701171875000000e+03 1.343691292277071625e-05 0.000000000000000000e+00
 </DataArray>
</CellData>
</Piece>
</UnstructuredGrid>
</VTKFile>
