<VTKFile type="UnstructuredGrid" byte_order="BigEndian">
<UnstructuredGrid><Piece NumberOfPoints="561" NumberOfCells="500">
<Points>
 <DataArray type="Float32" NumberOfComponents="3" format="ascii">
 3.020000085234642029e-02 0.000000000000000000e+00 0.000000000000000000e+00
 3.159600123763084412e-02 0.000000000000000000e+00 0.000000000000000000e+00
 3.299200162291526794e-02 0.000000000000000000e+00 0.000000000000000000e+00
 3.438799828290939331e-02 0.000000000000000000e+00 0.000000000000000000e+00
 3.578399866819381714e-02 0.000000000000000000e+00 0.000000000000000000e+00
 3.717999905347824097e-02 0.000000000000000000e+00 0.000000000000000000e+00
 3.857599943876266479e-02 0.000000000000000000e+00 0.000000000000000000e+00
 3.997199982404708862e-02 0.000000000000000000e+00 0.000000000000000000e+00
 4.136800020933151245e-02 0.000000000000000000e+00 0.000000000000000000e+00
 4.276400059461593628e-02 0.000000000000000000e+00 0.000000000000000000e+00
 4.416000097990036011e-02 0.000000000000000000e+00 0.000000000000000000e+00
 4.555600136518478394e-02 0.000000000000000000e+00 0.000000000000000000e+00
 4.695200175046920776e-02 0.000000000000000000e+00 0.000000000000000000e+00
 4.834799841046333313e-02 0.000000000000000000e+00 0.000000000000000000e+00
 4.974399879574775696e-02 0.000000000000000000e+00 0.000000000000000000e+00
 5.113999918103218079e-02 0.000000000000000000e+00 0.000000000000000000e+00
 5.253599956631660461e-02 0.000000000000000000e+00 0.000000000000000000e+00
 5.393199995160102844e-02 0.000000000000000000e+00 0.000000000000000000e+00
 5.532800033688545227e-02 0.000000000000000000e+00 0.000000000000000000e+00
 5.672400072216987610e-02 0.000000000000000000e+00 0.000000000000000000e+00
 5.812000110745429993e-02 0.000000000000000000e+00 0.000000000000000000e+00
 5.951600149273872375e-02 0.000000000000000000e+00 0.000000000000000000e+00
 6.091199815273284912e-02 0.000000000000000000e+00 0.000000000000000000e+00
 6.230799853801727295e-02 0.000000000000000000e+00 0.000000000000000000e+00
 6.370399892330169678e-02 0.000000000000000000e+00 0.000000000000000000e+00
 6.509999930858612061e-02 0.000000000000000000e+00 0.000000000000000000e+00
 6.649599969387054443e-02 0.000000000000000000e+00 0.000000000000000000e+00
 6.789200007915496826e-02 0.000000000000000000e+00 0.000000000000000000e+00
 6.928800046443939209e-02 0.000000000000000000e+00 0.000000000000000000e+00
 7.068400084972381592e-02 0.000000000000000000e+00 0.000000000000000000e+00
 7.208000123500823975e-02 0.000000000000000000e+00 0.000000000000000000e+00
 7.347600162029266357e-02 0.000000000000000000e+00 0.000000000000000000e+00
 7.487200200557708740e-02 0.000000000000000000e+00 0.000000000000000000e+00
 7.626800239086151123e-02 0.000000000000000000e+00 0.000000000000000000e+00
 7.766400277614593506e-02 0.000000000000000000e+00 0.000000000000000000e+00
 7.906000316143035889e-02 0.000000000000000000e+00 0.000000000000000000e+00
 8.045600354671478271e-02 0.000000000000000000e+00 0.000000000000000000e+00
 8.185199648141860962e-02 0.000000000000000000e+00 0.000000000000000000e+00
 8.324799686670303345e-02 0.000000000000000000e+00 0.000000000000000000e+00
 8.464399725198745728e-02 0.000000000000000000e+00 0.000000000000000000e+00
 8.603999763727188110e-02 0.000000000000000000e+00 0.000000000000000000e+00
 8.743599802255630493e-02 0.000000000000000000e+00 0.000000000000000000e+00
 8.883199840784072876e-02 0.000000000000000000e+00 0.000000000000000000e+00
 9.022799879312515259e-02 0.000000000000000000e+00 0.000000000000000000e+00
 9.162399917840957642e-02 0.000000000000000000e+00 0.000000000000000000e+00
 9.301999956369400024e-02 0.000000000000000000e+00 0.000000000000000000e+00
 9.441599994897842407e-02 0.000000000000000000e+00 0.000000000000000000e+00
 9.581200033426284790e-02 0.000000000000000000e+00 0.000000000000000000e+00
 9.720800071954727173e-02 0.000000000000000000e+00 0.000000000000000000e+00
 9.860400110483169556e-02 0.000000000000000000e+00 0.000000000000000000e+00
 1.000000014901161194e-01 0.000000000000000000e+00 0.000000000000000000e+00
 3.020000085234642029e-02 2.000000094994902611e-03 0.000000000000000000e+00
 3.159600123763084412e-02 2.000000094994902611e-03 0.000000000000000000e+00
 3.299200162291526794e-02 2.000000094994902611e-03 0.000000000000000000e+00
 3.438799828290939331e-02 2.000000094994902611e-03 0.000000000000000000e+00
 3.578399866819381714e-02 2.000000094994902611e-03 0.000000000000000000e+00
 3.717999905347824097e-02 2.000000094994902611e-03 0.000000000000000000e+00
 3.857599943876266479e-02 2.000000094994902611e-03 0.000000000000000000e+00
 3.997199982404708862e-02 2.000000094994902611e-03 0.000000000000000000e+00
 4.136800020933151245e-02 2.000000094994902611e-03 0.000000000000000000e+00
 4.276400059461593628e-02 2.000000094994902611e-03 0.000000000000000000e+00
 4.416000097990036011e-02 2.000000094994902611e-03 0.000000000000000000e+00
 4.555600136518478394e-02 2.000000094994902611e-03 0.000000000000000000e+00
 4.695200175046920776e-02 2.000000094994902611e-03 0.000000000000000000e+00
 4.834799841046333313e-02 2.000000094994902611e-03 0.000000000000000000e+00
 4.974399879574775696e-02 2.000000094994902611e-03 0.000000000000000000e+00
 5.113999918103218079e-02 2.000000094994902611e-03 0.000000000000000000e+00
 5.253599956631660461e-02 2.000000094994902611e-03 0.000000000000000000e+00
 5.393199995160102844e-02 2.000000094994902611e-03 0.000000000000000000e+00
 5.532800033688545227e-02 2.000000094994902611e-03 0.000000000000000000e+00
 5.672400072216987610e-02 2.000000094994902611e-03 0.000000000000000000e+00
 5.812000110745429993e-02 2.000000094994902611e-03 0.000000000000000000e+00
 5.951600149273872375e-02 2.000000094994902611e-03 0.000000000000000000e+00
 6.091199815273284912e-02 2.000000094994902611e-03 0.000000000000000000e+00
 6.230799853801727295e-02 2.000000094994902611e-03 0.000000000000000000e+00
 6.370399892330169678e-02 2.000000094994902611e-03 0.000000000000000000e+00
 6.509999930858612061e-02 2.000000094994902611e-03 0.000000000000000000e+00
 6.649599969387054443e-02 2.000000094994902611e-03 0.000000000000000000e+00
 6.789200007915496826e-02 2.000000094994902611e-03 0.000000000000000000e+00
 6.928800046443939209e-02 2.000000094994902611e-03 0.000000000000000000e+00
 7.068400084972381592e-02 2.000000094994902611e-03 0.000000000000000000e+00
 7.208000123500823975e-02 2.000000094994902611e-03 0.000000000000000000e+00
 7.347600162029266357e-02 2.000000094994902611e-03 0.000000000000000000e+00
 7.487200200557708740e-02 2.000000094994902611e-03 0.000000000000000000e+00
 7.626800239086151123e-02 2.000000094994902611e-03 0.000000000000000000e+00
 7.766400277614593506e-02 2.000000094994902611e-03 0.000000000000000000e+00
 7.906000316143035889e-02 2.000000094994902611e-03 0.000000000000000000e+00
 8.045600354671478271e-02 2.000000094994902611e-03 0.000000000000000000e+00
 8.185199648141860962e-02 2.000000094994902611e-03 0.000000000000000000e+00
 8.324799686670303345e-02 2.000000094994902611e-03 0.000000000000000000e+00
 8.464399725198745728e-02 2.000000094994902611e-03 0.000000000000000000e+00
 8.603999763727188110e-02 2.000000094994902611e-03 0.000000000000000000e+00
 8.743599802255630493e-02 2.000000094994902611e-03 0.000000000000000000e+00
 8.883199840784072876e-02 2.000000094994902611e-03 0.000000000000000000e+00
 9.022799879312515259e-02 2.000000094994902611e-03 0.000000000000000000e+00
 9.162399917840957642e-02 2.000000094994902611e-03 0.000000000000000000e+00
 9.301999956369400024e-02 2.000000094994902611e-03 0.000000000000000000e+00
 9.441599994897842407e-02 2.000000094994902611e-03 0.000000000000000000e+00
 9.581200033426284790e-02 2.000000094994902611e-03 0.000000000000000000e+00
 9.720800071954727173e-02 2.000000094994902611e-03 0.000000000000000000e+00
 9.860400110483169556e-02 2.000000094994902611e-03 0.000000000000000000e+00
 1.000000014901161194e-01 2.000000094994902611e-03 0.000000000000000000e+00
 3.020000085234642029e-02 4.000000189989805222e-03 0.000000000000000000e+00
 3.159600123763084412e-02 4.000000189989805222e-03 0.000000000000000000e+00
 3.299200162291526794e-02 4.000000189989805222e-03 0.000000000000000000e+00
 3.438799828290939331e-02 4.000000189989805222e-03 0.000000000000000000e+00
 3.578399866819381714e-02 4.000000189989805222e-03 0.000000000000000000e+00
 3.717999905347824097e-02 4.000000189989805222e-03 0.000000000000000000e+00
 3.857599943876266479e-02 4.000000189989805222e-03 0.000000000000000000e+00
 3.997199982404708862e-02 4.000000189989805222e-03 0.000000000000000000e+00
 4.136800020933151245e-02 4.000000189989805222e-03 0.000000000000000000e+00
 4.276400059461593628e-02 4.000000189989805222e-03 0.000000000000000000e+00
 4.416000097990036011e-02 4.000000189989805222e-03 0.000000000000000000e+00
 4.555600136518478394e-02 4.000000189989805222e-03 0.000000000000000000e+00
 4.695200175046920776e-02 4.000000189989805222e-03 0.000000000000000000e+00
 4.834799841046333313e-02 4.000000189989805222e-03 0.000000000000000000e+00
 4.974399879574775696e-02 4.000000189989805222e-03 0.000000000000000000e+00
 5.113999918103218079e-02 4.000000189989805222e-03 0.000000000000000000e+00
 5.253599956631660461e-02 4.000000189989805222e-03 0.000000000000000000e+00
 5.393199995160102844e-02 4.000000189989805222e-03 0.000000000000000000e+00
 5.532800033688545227e-02 4.000000189989805222e-03 0.000000000000000000e+00
 5.672400072216987610e-02 4.000000189989805222e-03 0.000000000000000000e+00
 5.812000110745429993e-02 4.000000189989805222e-03 0.000000000000000000e+00
 5.951600149273872375e-02 4.000000189989805222e-03 0.000000000000000000e+00
 6.091199815273284912e-02 4.000000189989805222e-03 0.000000000000000000e+00
 6.230799853801727295e-02 4.000000189989805222e-03 0.000000000000000000e+00
 6.370399892330169678e-02 4.000000189989805222e-03 0.000000000000000000e+00
 6.509999930858612061e-02 4.000000189989805222e-03 0.000000000000000000e+00
[...]
<CellData>
 <DataArray Name="pos.x" type="Float32" NumberOfComponents="1" format="ascii">
 3.089799999999996716e-02
 3.229400000000018367e-02
 3.368999999999989364e-02
 3.508600000000002689e-02
 3.648199999999994503e-02
 3.787799999999996725e-02
 3.927399999999999641e-02
 4.067000000000015741e-02
 4.206599999999984657e-02
 4.346200000000002839e-02
 4.485799999999992571e-02
 4.625399999999982997e-02
 4.765000000000010200e-02
 4.904600000000029075e-02
 5.044199999999982031e-02
 5.183799999999971070e-02
 5.323400000000009374e-02
 5.463000000000034495e-02
 5.602599999999959002e-02
 5.742200000000019511e-02
 5.881800000000018958e-02
 6.021399999999992037e-02
 6.160999999999997728e-02
 6.300599999999965950e-02
 6.440199999999984826e-02
 6.579800000000028681e-02
 6.719400000000040618e-02
 6.858999999999956798e-02
 6.998600000000049226e-02
 7.138200000000000101e-02
 7.277800000000009262e-02
 7.417400000000029525e-02
 7.556999999999963746e-02
 7.696600000000070052e-02
 7.836199999999958477e-02
 7.975799999999992618e-02
 8.115400000000030922e-02
 8.255000000000033145e-02
 8.394599999999907691e-02
 8.534199999999986241e-02
 8.673800000000071730e-02
 8.813399999999940726e-02
 8.952999999999991521e-02
 9.092600000000024274e-02
 9.232200000000112539e-02
 9.371799999999910757e-02
 9.511400000000032329e-02
 9.650999999999897161e-02
 9.790600000000099223e-02
 9.930200000000016791e-02
 3.089799999999991512e-02
 3.229400000000012816e-02
 3.369000000000000467e-02
 3.508600000000011015e-02
 3.648199999999991727e-02
 3.787799999999998807e-02
 3.927399999999998254e-02
 4.067000000000021986e-02
 4.206600000000011719e-02
 4.346199999999982022e-02
 4.485800000000012694e-02
 4.625399999999997569e-02
 4.765000000000017832e-02
 4.904599999999984666e-02
 5.044200000000010481e-02
 5.183799999999991193e-02
 5.323400000000015619e-02
 5.463000000000008127e-02
 5.602599999999999247e-02
 5.742199999999999388e-02
 5.881800000000068224e-02
 6.021399999999942076e-02
 6.161000000000058097e-02
 6.300599999999954848e-02
 6.440200000000008418e-02
 6.579800000000028681e-02
 6.719399999999994821e-02
 6.858999999999976227e-02
 6.998600000000028409e-02
 7.138199999999959855e-02
 7.277800000000009262e-02
 7.417399999999949034e-02
 7.557000000000003992e-02
 7.696600000000075603e-02
 7.836200000000000110e-02
 7.975799999999989842e-02
 8.115399999999992064e-02
 8.255000000000087268e-02
 8.394600000000029816e-02
 8.534199999999977915e-02
 8.673799999999995403e-02
 8.813400000000015666e-02
 8.953000000000019276e-02
 9.092600000000047866e-02
 9.232199999999883555e-02
 9.371800000000132802e-02
 9.511399999999957389e-02
 9.650999999999837486e-02
 9.790600000000004854e-02
 9.930200000000209692e-02
 3.089800000000001573e-02
 3.229400000000013510e-02
 3.368999999999984507e-02
 3.508600000000008240e-02
 3.648199999999976462e-02
 3.787799999999985623e-02
 3.927400000000039887e-02
 4.066999999999997006e-02
 4.206599999999977718e-02
 4.346200000000034758e-02
 4.485799999999989796e-02
 4.625400000000020467e-02
 4.764999999999997016e-02
 4.904599999999992299e-02
 5.044199999999979950e-02
 5.183800000000039071e-02
 5.323399999999984394e-02
 5.463000000000014372e-02
 5.602600000000013125e-02
 5.742200000000032695e-02
 5.881799999999981488e-02
 6.021399999999992037e-02
 6.160999999999988014e-02
 6.300599999999986767e-02
 6.440200000000005642e-02
 6.579799999999944027e-02
 6.719400000000064210e-02
 6.859000000000008146e-02
 6.998600000000040899e-02
 7.138199999999972345e-02
 7.277799999999928771e-02
 7.417400000000019811e-02
 7.556999999999970685e-02
 7.696600000000075603e-02
 7.836199999999958477e-02
 7.975799999999989842e-02
 8.115400000000030922e-02
 8.254999999999992899e-02
 8.394599999999949325e-02
 8.534200000000030650e-02
 8.673799999999984300e-02
 8.813399999999926848e-02
 8.953000000000074787e-02
 9.092600000000015947e-02
 9.232200000000102824e-02
 9.371799999999987085e-02
 9.511400000000044819e-02
 9.650999999999872181e-02
 9.790600000000125591e-02
 9.930200000000047322e-02
 3.089799999999996716e-02
 3.229400000000008653e-02
 3.369000000000004630e-02
 3.508600000000003383e-02
 3.648200000000010462e-02
 3.787800000000000195e-02
 3.927400000000001029e-02
 4.067000000000012272e-02
 4.206599999999973555e-02
 4.346200000000002839e-02
 4.485800000000000898e-02
 4.625400000000012141e-02
 4.764999999999974117e-02
 4.904600000000013810e-02
 5.044199999999971623e-02
 5.183799999999993968e-02
 5.323400000000026722e-02
 5.462999999999975514e-02
 5.602600000000020064e-02
 5.742199999999997306e-02
 5.881799999999991202e-02
 6.021400000000008690e-02
 6.161000000000038668e-02
 6.300599999999946521e-02
 6.440199999999959846e-02
 6.579800000000091131e-02
 6.719399999999998985e-02
 6.859000000000051167e-02
 6.998600000000017307e-02
 7.138199999999972345e-02
 7.277800000000028691e-02
 7.417399999999957361e-02
 7.556999999999940154e-02
 7.696600000000092257e-02
 7.836199999999918231e-02
 7.975800000000020373e-02
 8.115400000000003167e-02
 8.255000000000019267e-02
 8.394599999999963202e-02
 8.534199999999972364e-02
 8.673800000000003729e-02
 8.813400000000032319e-02
 8.953000000000015113e-02
 9.092600000000002070e-02
 9.232199999999915474e-02
 9.371799999999939901e-02
 9.511400000000044819e-02
 9.650999999999884671e-02
 9.790600000000165837e-02
 9.930199999999951566e-02
 3.089799999999996716e-02
 3.229399999999977428e-02
 3.369000000000020589e-02
 3.508599999999975627e-02
 3.648200000000021564e-02
 3.787799999999998807e-02
 3.927399999999974661e-02
 4.067000000000026150e-02
 4.206599999999981188e-02
 4.346199999999993124e-02
 4.485799999999980775e-02
 4.625400000000012835e-02
 4.764999999999972036e-02
 4.904600000000012422e-02
 5.044200000000004236e-02
 5.183799999999989111e-02
 5.323400000000002436e-02
 5.462999999999978290e-02
 5.602599999999986063e-02
 5.742200000000011878e-02
 5.881800000000002304e-02
 6.021400000000009384e-02
 6.161000000000037974e-02
 6.300599999999946521e-02
 6.440199999999939029e-02
 6.579800000000071702e-02
 6.719399999999998985e-02
 6.858999999999988717e-02
 6.998599999999953469e-02
 7.138200000000040346e-02
 7.277800000000028691e-02
 7.417399999999885196e-02
 7.557000000000003992e-02
 7.696600000000063113e-02
 7.836200000000040355e-02
 7.975799999999916290e-02
 8.115400000000030922e-02
 8.255000000000047022e-02
 8.394599999999949325e-02
 8.534200000000055630e-02
 8.673800000000045363e-02
 8.813399999999982359e-02
 8.953000000000055358e-02
 9.092599999999986804e-02
 9.232200000000038986e-02
 9.371799999999991249e-02
 9.511400000000030941e-02
 9.650999999999901324e-02
 9.790599999999989589e-02
 9.930200000000127813e-02
 3.089800000000006777e-02
 3.229400000000003795e-02
 3.369000000000015038e-02
 3.508599999999990199e-02
 3.648200000000003523e-02
 3.787799999999998807e-02
 3.927399999999994784e-02
 4.067000000000000476e-02
 4.206600000000004780e-02
 4.346199999999975777e-02
 4.485799999999997428e-02
 4.625400000000005896e-02
 4.765000000000004649e-02
 4.904599999999988830e-02
 5.044200000000020889e-02
 5.183800000000039071e-02
 5.323399999999995497e-02
 5.462999999999987311e-02
 5.602599999999979125e-02
 5.742200000000019511e-02
 5.881800000000030754e-02
 6.021399999999991343e-02
 6.160999999999958177e-02
 6.300600000000047829e-02
 6.440199999999939029e-02
 6.579799999999988436e-02
 6.719399999999998985e-02
 6.859000000000053943e-02
 6.998600000000014532e-02
 7.138199999999972345e-02
 7.277799999999998160e-02
 7.417399999999989280e-02
 7.557000000000003992e-02
 7.696599999999989561e-02
 7.836199999999964028e-02
 7.975800000000032863e-02
 8.115400000000030922e-02
 8.254999999999952653e-02
 8.394599999999867446e-02
 8.534200000000109754e-02
 8.673799999999989851e-02
 8.813399999999940726e-02
 8.953000000000024827e-02
 9.092600000000017335e-02
 9.232199999999998741e-02
 9.371799999999960717e-02
 9.511400000000060084e-02
 9.650999999999911039e-02
 9.790600000000029834e-02
 9.930199999999991811e-02
 3.089799999999996716e-02
 3.229400000000008653e-02
 3.368999999999997691e-02
 3.508599999999985342e-02
 3.648200000000028503e-02
 3.787799999999989786e-02
 3.927400000000003805e-02
 4.066999999999982435e-02
 4.206599999999990902e-02
 4.346200000000023655e-02
 4.485799999999999510e-02
 4.625400000000015610e-02
 4.764999999999984526e-02
 4.904599999999999238e-02
 5.044200000000045869e-02
 5.183799999999966213e-02
 5.323399999999987864e-02
 5.463000000000007433e-02
 5.602599999999986063e-02
 5.742199999999991755e-02
 5.881799999999980794e-02
 6.021400000000010772e-02
 6.161000000000009524e-02
 6.300599999999967338e-02
 6.440199999999982050e-02
 6.579800000000050886e-02
 6.719399999999974005e-02
 6.859000000000015085e-02
 6.998599999999989552e-02
 7.138200000000040346e-02
 7.277800000000028691e-02
 7.417399999999943483e-02
 7.556999999999960971e-02
 7.696600000000063113e-02
 7.836200000000011212e-02
 7.975799999999939882e-02
 8.115399999999978187e-02
 8.255000000000034532e-02
 8.394599999999949325e-02
 8.534200000000069508e-02
 8.673800000000020383e-02
 8.813400000000037871e-02
 8.953000000000024827e-02
 9.092599999999957661e-02
 9.232200000000083395e-02
 9.371800000000012065e-02
 9.511400000000060084e-02
 9.650999999999936019e-02
 9.790599999999989589e-02
 9.930200000000127813e-02
 3.089800000000001920e-02
 3.229400000000003795e-02
 3.369000000000003936e-02
 3.508599999999989505e-02
 3.648200000000000054e-02
 3.787800000000000888e-02
 3.927400000000007274e-02
 4.066999999999996313e-02
 4.206600000000004780e-02
 4.346199999999992430e-02
 4.485800000000000898e-02
 4.625399999999995487e-02
 4.765000000000009506e-02
 4.904599999999978421e-02
 5.044200000000034073e-02
 5.183799999999979397e-02
 5.323400000000012150e-02
 5.463000000000029638e-02
 5.602600000000021452e-02
 5.742199999999987592e-02
 5.881800000000008549e-02
 6.021400000000030894e-02
 6.160999999999938054e-02
 6.300600000000007583e-02
 6.440199999999962621e-02
 6.579800000000091131e-02
 6.719399999999979556e-02
 6.859000000000074759e-02
 6.998599999999995103e-02
 7.138199999999972345e-02
 7.277800000000099467e-02
 7.417399999999926830e-02
 7.556999999999963746e-02
 7.696600000000063113e-02
 7.836199999999958477e-02
 7.975799999999916290e-02
 8.115400000000068392e-02
 8.254999999999979021e-02
 8.394599999999989570e-02
 8.534200000000040365e-02
 8.673800000000020383e-02
 8.813399999999915746e-02
 8.953000000000031766e-02
 9.092599999999922966e-02
 9.232200000000020945e-02
 9.371800000000092556e-02
 9.511399999999979593e-02
 9.650999999999959611e-02
 9.790599999999977099e-02
 9.930199999999991811e-02
 3.089800000000006777e-02
 3.229399999999982979e-02
 3.369000000000015038e-02
 3.508599999999980484e-02
 3.648200000000010462e-02
 3.787799999999993950e-02
 3.927399999999992702e-02
 4.067000000000006027e-02
 4.206599999999987433e-02
 4.346200000000004227e-02
 4.485799999999990489e-02
 4.625399999999989242e-02
 4.764999999999986607e-02
 4.904600000000002707e-02
 5.044199999999995215e-02
 5.183799999999982866e-02
 5.323400000000030885e-02
 5.463000000000037965e-02
 5.602599999999979125e-02
 5.742199999999979265e-02
 5.881800000000010631e-02
 6.021400000000032282e-02
 6.160999999999947768e-02
 6.300600000000007583e-02
 6.440199999999984826e-02
 6.579799999999984272e-02
 6.719399999999998985e-02
 6.859000000000028963e-02
 6.998600000000040899e-02
 7.138199999999972345e-02
 7.277799999999998160e-02
 7.417399999999957361e-02
 7.557000000000003992e-02
 7.696600000000070052e-02
 7.836199999999952925e-02
 7.975800000000037027e-02
 8.115399999999989289e-02
 8.255000000000059512e-02
 8.394599999999949325e-02
 8.534199999999998731e-02
 8.673800000000016219e-02
 8.813399999999912970e-02
 8.953000000000072012e-02
 9.092600000000086724e-02
 9.232199999999930740e-02
 9.371799999999991249e-02
 9.511400000000039268e-02
 9.651000000000038714e-02
 9.790600000000086733e-02
 9.930199999999904381e-02
 3.089799999999991859e-02
 3.229400000000009346e-02
 3.369000000000014344e-02
 3.508599999999986035e-02
 3.648199999999999360e-02
 3.787799999999990480e-02
 3.927400000000005886e-02
 4.067000000000028925e-02
 4.206599999999997841e-02
 4.346199999999982022e-02
 4.485800000000009918e-02
 4.625400000000005202e-02
 4.765000000000003955e-02
 4.904599999999978421e-02
 5.044200000000004930e-02
 5.183799999999988417e-02
 5.323399999999998966e-02
 5.463000000000003270e-02
 5.602599999999986063e-02
 5.742199999999971632e-02
 5.881800000000028672e-02
 6.021399999999973301e-02
 6.161000000000007443e-02
 6.300599999999986767e-02
 6.440199999999984826e-02
 6.579800000000048110e-02
 6.719399999999979556e-02
 6.859000000000008146e-02
 6.998600000000021470e-02
 7.138199999999972345e-02
 7.277800000000070324e-02
 7.417399999999957361e-02
 7.556999999999963746e-02
 7.696600000000029806e-02
 7.836199999999952925e-02
 7.975799999999956535e-02
 8.115400000000108638e-02
 8.254999999999992899e-02
 8.394599999999949325e-02
 8.534200000000027875e-02
 8.673799999999989851e-02
 8.813399999999900480e-02
 8.953000000000077563e-02
 9.092599999999995131e-02
 9.232199999999930740e-02
 9.371800000000092556e-02
 9.511399999999960164e-02
 9.650999999999917978e-02
 9.790600000000090897e-02
 9.930200000000022342e-02
 </DataArray>
 <DataArray Name="pos.y" type="Float32" NumberOfComponents="1" format="ascii">
 9.999999999999998040e-04
 1.000000000000005659e-03
 9.999999999999959008e-04
 1.000000000000003924e-03
 9.999999999999941661e-04
 1.000000000000001972e-03
 9.999999999999987198e-04
 1.000000000000000238e-03
 9.999999999999941661e-04
 1.000000000000002840e-03
 9.999999999999976356e-04
 1.000000000000003707e-03
 9.999999999999987198e-04
 1.000000000000003924e-03
 9.999999999999991535e-04
 9.999999999999956840e-04
 1.000000000000002623e-03
 1.000000000000002189e-03
 9.999999999999943830e-04
 1.000000000000003707e-03
 9.999999999999989366e-04
 1.000000000000001105e-03
 9.999999999999985029e-04
 1.000000000000000454e-03
 9.999999999999976356e-04
 1.000000000000000671e-03
 1.000000000000004358e-03
 9.999999999999941661e-04
 1.000000000000007177e-03
 9.999999999999941661e-04
 1.000000000000000888e-03
 1.000000000000000671e-03
 9.999999999999976356e-04
 1.000000000000007177e-03
 9.999999999999976356e-04
 9.999999999999909135e-04
 1.000000000000007177e-03
 1.000000000000010863e-03
 9.999999999999902630e-04
 9.999999999999974187e-04
 1.000000000000006960e-03
 1.000000000000000671e-03
 9.999999999999939493e-04
 1.000000000000006960e-03
 1.000000000000000238e-03
 9.999999999999978524e-04
 9.999999999999937324e-04
 9.999999999999972019e-04
 1.000000000000007177e-03
 9.999999999999974187e-04
 2.999999999999995726e-03
 3.000000000000007001e-03
 3.000000000000000062e-03
 2.999999999999998328e-03
 2.999999999999991389e-03
 3.000000000000009170e-03
 2.999999999999997027e-03
 3.000000000000012206e-03
 3.000000000000001797e-03
 2.999999999999992256e-03
 3.000000000000003098e-03
 2.999999999999989220e-03
 3.000000000000015675e-03
 2.999999999999991389e-03
 3.000000000000010037e-03
 3.000000000000000062e-03
 3.000000000000001363e-03
 3.000000000000007869e-03
 2.999999999999993124e-03
 2.999999999999996159e-03
 3.000000000000029553e-03
 2.999999999999984884e-03
 3.000000000000013940e-03
 2.999999999999985317e-03
 3.000000000000001363e-03
 3.000000000000008302e-03
 2.999999999999993557e-03
 2.999999999999976210e-03
 3.000000000000021313e-03
 2.999999999999995726e-03
 3.000000000000005700e-03
 2.999999999999974475e-03
 3.000000000000010471e-03
 3.000000000000025216e-03
 2.999999999999993124e-03
 2.999999999999975343e-03
 3.000000000000007869e-03
 3.000000000000012639e-03
 3.000000000000012639e-03
 2.999999999999990955e-03
 2.999999999999995292e-03
 3.000000000000002231e-03
 2.999999999999985317e-03
 3.000000000000030420e-03
 2.999999999999962332e-03
 3.000000000000031721e-03
 2.999999999999997027e-03
 2.999999999999959296e-03
 2.999999999999993124e-03
 3.000000000000049936e-03
 4.999999999999997502e-03
 5.000000000000024390e-03
 4.999999999999987961e-03
 5.000000000000020053e-03
 4.999999999999976685e-03
 5.000000000000005308e-03
 5.000000000000038268e-03
 4.999999999999990563e-03
 4.999999999999974083e-03
 5.000000000000039135e-03
 4.999999999999973216e-03
 5.000000000000008778e-03
 5.000000000000002706e-03
 4.999999999999988828e-03
 4.999999999999990563e-03
 5.000000000000024390e-03
 4.999999999999976685e-03
 5.000000000000017451e-03
 5.000000000000000971e-03
 5.000000000000018319e-03
 4.999999999999993165e-03
 4.999999999999994033e-03
 4.999999999999990563e-03
 4.999999999999985359e-03
 5.000000000000022655e-03
 4.999999999999964542e-03
 5.000000000000059085e-03
 5.000000000000012247e-03
 5.000000000000018319e-03
 4.999999999999992298e-03
 4.999999999999965410e-03
 5.000000000000040003e-03
 4.999999999999940256e-03
 5.000000000000063421e-03
 4.999999999999965410e-03
 5.000000000000017451e-03
 5.000000000000033931e-03
 4.999999999999967144e-03
 4.999999999999987094e-03
 5.000000000000020921e-03
 4.999999999999987094e-03
 4.999999999999968012e-03
 4.999999999999994900e-03
 5.000000000000037401e-03
 5.000000000000043472e-03
 4.999999999999941123e-03
 5.000000000000014849e-03
 4.999999999999962808e-03
 5.000000000000044340e-03
 5.000000000000034799e-03
 6.999999999999994074e-03
 7.000000000000016626e-03
 7.000000000000012289e-03
 6.999999999999978462e-03
 7.000000000000023564e-03
 7.000000000000010554e-03
 6.999999999999994074e-03
 7.000000000000014891e-03
 6.999999999999959380e-03
 6.999999999999995809e-03
 6.999999999999988003e-03
 7.000000000000014891e-03
 6.999999999999975860e-03
 7.000000000000025299e-03
 6.999999999999974992e-03
 6.999999999999969788e-03
 7.000000000000020962e-03
 6.999999999999973258e-03
 7.000000000000027034e-03
 6.999999999999993207e-03
 7.000000000000002748e-03
 7.000000000000002748e-03
 7.000000000000027034e-03
 6.999999999999959380e-03
 6.999999999999948104e-03
 7.000000000000079076e-03
 7.000000000000001880e-03
 7.000000000000025299e-03
 6.999999999999974992e-03
 6.999999999999978462e-03
 7.000000000000011421e-03
 6.999999999999978462e-03
 6.999999999999954176e-03
 7.000000000000075606e-03
 6.999999999999945502e-03
 7.000000000000016626e-03
 7.000000000000007952e-03
 7.000000000000027034e-03
 6.999999999999991472e-03
 6.999999999999942032e-03
 7.000000000000005350e-03
 7.000000000000019228e-03
 6.999999999999998411e-03
 6.999999999999971523e-03
 7.000000000000006217e-03
 7.000000000000009687e-03
 6.999999999999979329e-03
 6.999999999999966319e-03
 7.000000000000084280e-03
 6.999999999999943767e-03
 8.999999999999994116e-03
 8.999999999999949013e-03
 9.000000000000070444e-03
 8.999999999999961156e-03
 9.000000000000025341e-03
 9.000000000000020137e-03
 8.999999999999973299e-03
 9.000000000000037484e-03
 8.999999999999955952e-03
 9.000000000000025341e-03
 8.999999999999981973e-03
 9.000000000000035749e-03
 8.999999999999981973e-03
 8.999999999999999320e-03
 9.000000000000025341e-03
 9.000000000000009728e-03
 9.000000000000034014e-03
 8.999999999999980238e-03
 8.999999999999978503e-03
 9.000000000000021871e-03
 8.999999999999978503e-03
 9.000000000000028810e-03
 9.000000000000047892e-03
 8.999999999999952482e-03
 8.999999999999940339e-03
 9.000000000000105138e-03
 8.999999999999983707e-03
 9.000000000000018402e-03
 8.999999999999938605e-03
 9.000000000000070444e-03
 9.000000000000021871e-03
 8.999999999999891767e-03
 9.000000000000023606e-03
 9.000000000000060035e-03
 9.000000000000027076e-03
 8.999999999999935135e-03
 9.000000000000021871e-03
 9.000000000000009728e-03
 8.999999999999900441e-03
 9.000000000000077383e-03
 9.000000000000027076e-03
 8.999999999999985442e-03
 9.000000000000004524e-03
 8.999999999999969830e-03
 9.000000000000070444e-03
 8.999999999999987177e-03
 8.999999999999988912e-03
 8.999999999999969830e-03
 8.999999999999980238e-03
 9.000000000000060035e-03
 1.100000000000001844e-02
 1.100000000000001324e-02
 1.100000000000006702e-02
 1.099999999999995079e-02
 1.099999999999999242e-02
 1.099999999999999763e-02
 1.099999999999998722e-02
 1.100000000000000283e-02
 1.099999999999997334e-02
 1.099999999999997334e-02
 1.099999999999998548e-02
 1.099999999999999763e-02