<VTKFile type="UnstructuredGrid" byte_order="BigEndian">
<UnstructuredGrid><Piece NumberOfPoints="121" NumberOfCells="100">
<Points>
 <DataArray type="Float32" NumberOfComponents="3" format="ascii">
 0.000000000000000000e+00 0.000000000000000000e+00 0.000000000000000000e+00
 3.000000026077032089e-03 0.000000000000000000e+00 0.000000000000000000e+00
 6.000000052154064178e-03 0.000000000000000000e+00 0.000000000000000000e+00
 8.999999612569808960e-03 0.000000000000000000e+00 0.000000000000000000e+00
 1.200000010430812836e-02 0.000000000000000000e+00 0.000000000000000000e+00
 1.499999966472387314e-02 0.000000000000000000e+00 0.000000000000000000e+00
 1.799999922513961792e-02 0.000000000000000000e+00 0.000000000000000000e+00
 2.099999971687793732e-02 0.000000000000000000e+00 0.000000000000000000e+00
 2.400000020861625671e-02 0.000000000000000000e+00 0.000000000000000000e+00
 2.700000070035457611e-02 0.000000000000000000e+00 0.000000000000000000e+00
 2.999999932944774628e-02 0.000000000000000000e+00 0.000000000000000000e+00
 0.000000000000000000e+00 2.000000094994902611e-03 0.000000000000000000e+00
 3.000000026077032089e-03 2.000000094994902611e-03 0.000000000000000000e+00
 6.000000052154064178e-03 2.000000094994902611e-03 0.000000000000000000e+00
 8.999999612569808960e-03 2.000000094994902611e-03 0.000000000000000000e+00
 1.200000010430812836e-02 2.000000094994902611e-03 0.000000000000000000e+00
 1.499999966472387314e-02 2.000000094994902611e-03 0.000000000000000000e+00
 1.799999922513961792e-02 2.000000094994902611e-03 0.000000000000000000e+00
 2.099999971687793732e-02 2.000000094994902611e-03 0.000000000000000000e+00
 2.400000020861625671e-02 2.000000094994902611e-03 0.000000000000000000e+00
 2.700000070035457611e-02 2.000000094994902611e-03 0.000000000000000000e+00
 2.999999932944774628e-02 2.000000094994902611e-03 0.000000000000000000e+00
 0.000000000000000000e+00 4.000000189989805222e-03 0.000000000000000000e+00
 3.000000026077032089e-03 4.000000189989805222e-03 0.000000000000000000e+00
 6.000000052154064178e-03 4.000000189989805222e-03 0.000000000000000000e+00
 8.999999612569808960e-03 4.000000189989805222e-03 0.000000000000000000e+00
 1.200000010430812836e-02 4.000000189989805222e-03 0.000000000000000000e+00
 1.499999966472387314e-02 4.000000189989805222e-03 0.000000000000000000e+00
 1.799999922513961792e-02 4.000000189989805222e-03 0.000000000000000000e+00
 2.099999971687793732e-02 4.000000189989805222e-03 0.000000000000000000e+00
 2.400000020861625671e-02 4.000000189989805222e-03 0.000000000000000000e+00
 2.700000070035457611e-02 4.000000189989805222e-03 0.000000000000000000e+00
 2.999999932944774628e-02 4.000000189989805222e-03 0.000000000000000000e+00
 0.000000000000000000e+00 6.000000052154064178e-03 0.000000000000000000e+00
 3.000000026077032089e-03 6.000000052154064178e-03 0.000000000000000000e+00
 6.000000052154064178e-03 6.000000052154064178e-03 0.000000000000000000e+00
 8.999999612569808960e-03 6.000000052154064178e-03 0.000000000000000000e+00
 1.200000010430812836e-02 6.000000052154064178e-03 0.000000000000000000e+00
 1.499999966472387314e-02 6.000000052154064178e-03 0.000000000000000000e+00
 1.799999922513961792e-02 6.000000052154064178e-03 0.000000000000000000e+00
 2.099999971687793732e-02 6.000000052154064178e-03 0.000000000000000000e+00
 2.400000020861625671e-02 6.000000052154064178e-03 0.000000000000000000e+00
 2.700000070035457611e-02 6.000000052154064178e-03 0.000000000000000000e+00
 2.999999932944774628e-02 6.000000052154064178e-03 0.000000000000000000e+00
 0.000000000000000000e+00 8.000000379979610443e-03 0.000000000000000000e+00
 3.000000026077032089e-03 8.000000379979610443e-03 0.000000000000000000e+00
 6.000000052154064178e-03 8.000000379979610443e-03 0.000000000000000000e+00
 8.999999612569808960e-03 8.000000379979610443e-03 0.000000000000000000e+00
 1.200000010430812836e-02 8.000000379979610443e-03 0.000000000000000000e+00
 1.499999966472387314e-02 8.000000379979610443e-03 0.000000000000000000e+00
 1.799999922513961792e-02 8.000000379979610443e-03 0.000000000000000000e+00
 2.099999971687793732e-02 8.000000379979610443e-03 0.000000000000000000e+00
 2.400000020861625671e-02 8.000000379979610443e-03 0.000000000000000000e+00
 2.700000070035457611e-02 8.000000379979610443e-03 0.000000000000000000e+00
 2.999999932944774628e-02 8.000000379979610443e-03 0.000000000000000000e+00
 0.000000000000000000e+00 9.999999776482582092e-03 0.000000000000000000e+00
 3.000000026077032089e-03 9.999999776482582092e-03 0.000000000000000000e+00
 6.000000052154064178e-03 9.999999776482582092e-03 0.000000000000000000e+00
 8.999999612569808960e-03 9.999999776482582092e-03 0.000000000000000000e+00
 1.200000010430812836e-02 9.999999776482582092e-03 0.000000000000000000e+00
 1.499999966472387314e-02 9.999999776482582092e-03 0.000000000000000000e+00
 1.799999922513961792e-02 9.999999776482582092e-03 0.000000000000000000e+00
 2.099999971687793732e-02 9.999999776482582092e-03 0.000000000000000000e+00
 2.400000020861625671e-02 9.999999776482582092e-03 0.000000000000000000e+00
 2.700000070035457611e-02 9.999999776482582092e-03 0.000000000000000000e+00
 2.999999932944774628e-02 9.999999776482582092e-03 0.000000000000000000e+00
 0.000000000000000000e+00 1.200000010430812836e-02 0.000000000000000000e+00
 3.000000026077032089e-03 1.200000010430812836e-02 0.000000000000000000e+00
 6.000000052154064178e-03 1.200000010430812836e-02 0.000000000000000000e+00
 8.999999612569808960e-03 1.200000010430812836e-02 0.000000000000000000e+00
 1.200000010430812836e-02 1.200000010430812836e-02 0.000000000000000000e+00
 1.499999966472387314e-02 1.200000010430812836e-02 0.000000000000000000e+00
 1.799999922513961792e-02 1.200000010430812836e-02 0.000000000000000000e+00
 2.099999971687793732e-02 1.200000010430812836e-02 0.000000000000000000e+00
 2.400000020861625671e-02 1.200000010430812836e-02 0.000000000000000000e+00
 2.700000070035457611e-02 1.200000010430812836e-02 0.000000000000000000e+00
 2.999999932944774628e-02 1.200000010430812836e-02 0.000000000000000000e+00
 0.000000000000000000e+00 1.400000043213367462e-02 0.000000000000000000e+00
 3.000000026077032089e-03 1.400000043213367462e-02 0.000000000000000000e+00
 6.000000052154064178e-03 1.400000043213367462e-02 0.000000000000000000e+00
 8.999999612569808960e-03 1.400000043213367462e-02 0.000000000000000000e+00
 1.200000010430812836e-02 1.400000043213367462e-02 0.000000000000000000e+00
 1.499999966472387314e-02 1.400000043213367462e-02 0.000000000000000000e+00
 1.799999922513961792e-02 1.400000043213367462e-02 0.000000000000000000e+00
 2.099999971687793732e-02 1.400000043213367462e-02 0.000000000000000000e+00
 2.400000020861625671e-02 1.400000043213367462e-02 0.000000000000000000e+00
 2.700000070035457611e-02 1.400000043213367462e-02 0.000000000000000000e+00
 2.999999932944774628e-02 1.400000043213367462e-02 0.000000000000000000e+00
 0.000000000000000000e+00 1.600000075995922089e-02 0.000000000000000000e+00
 3.000000026077032089e-03 1.600000075995922089e-02 0.000000000000000000e+00
 6.000000052154064178e-03 1.600000075995922089e-02 0.000000000000000000e+00
 8.999999612569808960e-03 1.600000075995922089e-02 0.000000000000000000e+00
 1.200000010430812836e-02 1.600000075995922089e-02 0.000000000000000000e+00
 1.499999966472387314e-02 1.600000075995922089e-02 0.000000000000000000e+00
 1.799999922513961792e-02 1.600000075995922089e-02 0.000000000000000000e+00
 2.099999971687793732e-02 1.600000075995922089e-02 0.000000000000000000e+00
 2.400000020861625671e-02 1.600000075995922089e-02 0.000000000000000000e+00
 2.700000070035457611e-02 1.600000075995922089e-02 0.000000000000000000e+00
 2.999999932944774628e-02 1.600000075995922089e-02 0.000000000000000000e+00
 0.000000000000000000e+00 1.799999922513961792e-02 0.000000000000000000e+00
 3.000000026077032089e-03 1.799999922513961792e-02 0.000000000000000000e+00
 6.000000052154064178e-03 1.799999922513961792e-02 0.000000000000000000e+00
 8.999999612569808960e-03 1.799999922513961792e-02 0.000000000000000000e+00
 1.200000010430812836e-02 1.799999922513961792e-02 0.000000000000000000e+00
 1.499999966472387314e-02 1.799999922513961792e-02 0.000000000000000000e+00
 1.799999922513961792e-02 1.799999922513961792e-02 0.000000000000000000e+00
 2.099999971687793732e-02 1.799999922513961792e-02 0.000000000000000000e+00
 2.400000020861625671e-02 1.799999922513961792e-02 0.000000000000000000e+00
 2.700000070035457611e-02 1.799999922513961792e-02 0.000000000000000000e+00
 2.999999932944774628e-02 1.799999922513961792e-02 0.000000000000000000e+00
 0.000000000000000000e+00 1.999999955296516418e-02 0.000000000000000000e+00
 3.000000026077032089e-03 1.999999955296516418e-02 0.000000000000000000e+00
 6.000000052154064178e-03 1.999999955296516418e-02 0.000000000000000000e+00
 8.999999612569808960e-03 1.999999955296516418e-02 0.000000000000000000e+00
 1.200000010430812836e-02 1.999999955296516418e-02 0.000000000000000000e+00
 1.499999966472387314e-02 1.999999955296516418e-02 0.000000000000000000e+00
 1.799999922513961792e-02 1.999999955296516418e-02 0.000000000000000000e+00
 2.099999971687793732e-02 1.999999955296516418e-02 0.000000000000000000e+00
 2.400000020861625671e-02 1.999999955296516418e-02 0.000000000000000000e+00
 2.700000070035457611e-02 1.999999955296516418e-02 0.000000000000000000e+00
 2.999999932944774628e-02 1.999999955296516418e-02 0.000000000000000000e+00
 </DataArray>
</Points>
<Cells>
 <DataArray type="Int32" Name="connectivity" format="ascii">
 0 1 12 11
 1 2 13 12
 2 3 14 13
 3 4 15 14
 4 5 16 15
 5 6 17 16
 6 7 18 17
 7 8 19 18
 8 9 20 19
 9 10 21 20
 11 12 23 22
 12 13 24 23
 13 14 25 24
 14 15 26 25
 15 16 27 26
 16 17 28 27
 17 18 29 28
 18 19 30 29
 19 20 31 30
 20 21 32 31
 22 23 34 33
 23 24 35 34
 24 25 36 35
 25 26 37 36
 26 27 38 37
 27 28 39 38
 28 29 40 39
 29 30 41 40
 30 31 42 41
 31 32 43 42
 33 34 45 44
 34 35 46 45
 35 36 47 46
 36 37 48 47
 37 38 49 48
 38 39 50 49
 39 40 51 50
 40 41 52 51
 41 42 53 52
 42 43 54 53
 44 45 56 55
 45 46 57 56
 46 47 58 57
 47 48 59 58
 48 49 60 59
 49 50 61 60
 50 51 62 61
 51 52 63 62
 52 53 64 63
 53 54 65 64
 55 56 67 66
 56 57 68 67
 57 58 69 68
 58 59 70 69
 59 60 71 70
 60 61 72 71
 61 62 73 72
 62 63 74 73
 63 64 75 74
 64 65 76 75
 66 67 78 77
 67 68 79 78
 68 69 80 79
 69 70 81 80
 70 71 82 81
 71 72 83 82
 72 73 84 83
 73 74 85 84
 74 75 86 85
 75 76 87 86
 77 78 89 88
 78 79 90 89
 79 80 91 90
 80 81 92 91
 81 82 93 92
 82 83 94 93
 83 84 95 94
 84 85 96 95
 85 86 97 96
 86 87 98 97
 88 89 100 99
 89 90 101 100
 90 91 102 101
 91 92 103 102
 92 93 104 103
 93 94 105 104
 94 95 106 105
 95 96 107 106
 96 97 108 107
 97 98 109 108
 99 100 111 110
 100 101 112 111
 101 102 113 112
 102 103 114 113
 103 104 115 114
 104 105 116 115
 105 106 117 116
 106 107 118 117
 107 108 119 118
 108 109 120 119
 </DataArray>
 <DataArray type="Int32" Name="offsets" format="ascii">
 4
 8
 12
 16
 20
 24
 28
 32
 36
 40
 44
 48
 52
 56
 60
 64
 68
 72
 76
 80
 84
 88
 92
 96
 100
 104
 108
 112
 116
 120
 124
 128
 132
 136
 140
 144
 148
 152
 156
 160
 164
 168
 172
 176
 180
 184
 188
 192
 196
 200
 204
 208
 212
 216
 220
 224
 228
 232
 236
 240
 244
 248
 252
 256
 260
 264
 268
 272
 276
 280
 284
 288
 292
 296
 300
 304
 308
 312
 316
 320
 324
 328
 332
 336
 340
 344
 348
 352
 356
 360
 364
 368
 372
 376
 380
 384
 388
 392
 396
 400
 </DataArray>
 <DataArray type="UInt8" Name="types" format="ascii">
 9
 9
 9
 9
 9
 9
 9
 9
 9
 9
 9
 9
 9
 9
 9
 9
 9
 9
 9
 9
 9
 9
 9
 9
 9
 9
 9
 9
 9
 9
 9
 9
 9
 9
 9
 9
 9
 9
 9
 9
 9
 9
 9
 9
 9
 9
 9
 9
 9
 9
 9
 9
 9
 9
 9
 9
 9
 9
 9
 9
 9
 9
 9
 9
 9
 9
 9
 9
 9
 9
 9
 9
 9
 9
 9
 9
 9
 9
 9
 9
 9
 9
 9
 9
 9
 9
 9
 9
 9
 9
 9
 9
 9
 9
 9
 9
 9
 9
 9
 9
 </DataArray>
</Cells>
<CellData>
 <DataArray Name="pos.x" type="Float32" NumberOfComponents="1" format="ascii">
 1.500000000000000031e-03
 4.499999999999999660e-03
 7.500000000000001457e-03
 1.050000000000000412e-02
 1.350000000000000505e-02
 1.649999999999999037e-02
 1.950000000000001732e-02
 2.249999999999999570e-02
 2.550000000000001918e-02
 2.849999999999999756e-02
 1.500000000000000248e-03
 4.500000000000001395e-03
 7.499999999999997120e-03
 1.050000000000000239e-02
 1.350000000000000679e-02
 1.649999999999999037e-02
 1.950000000000000344e-02
 2.250000000000000611e-02
 2.550000000000000530e-02
 2.850000000000003225e-02
 1.500000000000000899e-03
 4.499999999999998793e-03
 7.499999999999998855e-03
 1.050000000000000586e-02
 1.350000000000000679e-02
 1.649999999999998690e-02
 1.949999999999999650e-02
 2.250000000000001998e-02
 2.549999999999998102e-02
 2.850000000000003919e-02
 1.499999999999999164e-03
 4.500000000000001395e-03
 7.499999999999998855e-03
 1.049999999999999718e-02
 1.350000000000000505e-02
 1.649999999999999731e-02
 1.950000000000001732e-02
 2.249999999999997488e-02
 2.549999999999999836e-02
 2.850000000000000103e-02
 1.500000000000000248e-03
 4.500000000000000527e-03
 7.499999999999996253e-03
 1.050000000000000239e-02
 1.350000000000000505e-02
 1.649999999999998343e-02
 1.950000000000001732e-02
 2.249999999999999570e-02
 2.549999999999999142e-02
 2.850000000000002531e-02
 1.500000000000000248e-03
 4.499999999999999660e-03
 7.500000000000003192e-03
 1.050000000000000065e-02
 1.350000000000000679e-02
 1.649999999999999384e-02
 1.949999999999998609e-02
 2.250000000000000611e-02
 2.549999999999999142e-02
 2.850000000000006001e-02
 1.499999999999999598e-03
 4.500000000000000527e-03
 7.499999999999995386e-03
 1.050000000000000412e-02
 1.350000000000000505e-02
 1.649999999999998343e-02
 1.950000000000002426e-02
 2.249999999999998529e-02
 2.550000000000004347e-02
 2.850000000000000103e-02
 1.499999999999999598e-03
 4.500000000000001395e-03
 7.499999999999997988e-03
 1.049999999999999892e-02
 1.350000000000000679e-02
 1.649999999999999384e-02
 1.950000000000001732e-02
 2.249999999999998529e-02
 2.549999999999998448e-02
 2.850000000000004266e-02
 1.500000000000000899e-03
 4.499999999999998793e-03
 7.500000000000002325e-03
 1.050000000000000065e-02
 1.350000000000000679e-02
 1.649999999999999384e-02
 1.950000000000000691e-02
 2.249999999999999570e-02
 2.549999999999997755e-02
 2.850000000000002184e-02
 1.499999999999999381e-03
 4.500000000000000527e-03
 7.499999999999999722e-03
 1.050000000000000065e-02
 1.350000000000000679e-02
 1.649999999999999384e-02
 1.950000000000001732e-02
 2.249999999999998529e-02
 2.550000000000000877e-02
 2.850000000000003225e-02
 </DataArray>
 <DataArray Name="pos.y" type="Float32" NumberOfComponents="1" format="ascii">
 1.000000000000000021e-03
 9.999999999999998040e-04
 1.000000000000000238e-03
 1.000000000000000238e-03
 9.999999999999998040e-04
 1.000000000000000238e-03
 9.999999999999998040e-04
 1.000000000000000238e-03
 1.000000000000000671e-03
 9.999999999999987198e-04
 3.000000000000000496e-03
 2.999999999999999629e-03
 2.999999999999999629e-03
 3.000000000000000496e-03
 2.999999999999997894e-03
 2.999999999999998761e-03
 2.999999999999999629e-03
 3.000000000000003532e-03
 3.000000000000000496e-03
 2.999999999999997894e-03
 5.000000000000001839e-03
 4.999999999999998369e-03
 5.000000000000000104e-03
 5.000000000000002706e-03
 5.000000000000003574e-03
 4.999999999999999237e-03
 4.999999999999999237e-03
 5.000000000000007043e-03
 4.999999999999997502e-03
 5.000000000000005308e-03
 7.000000000000002748e-03
 7.000000000000001013e-03
 7.000000000000002748e-03
 6.999999999999999278e-03
 7.000000000000000146e-03
 7.000000000000001880e-03
 7.000000000000002748e-03
 6.999999999999996676e-03
 6.999999999999995809e-03
 6.999999999999993207e-03
 9.000000000000002789e-03
 9.000000000000004524e-03
 9.000000000000002789e-03
 9.000000000000004524e-03
 8.999999999999999320e-03
 9.000000000000001055e-03
 9.000000000000004524e-03
 9.000000000000004524e-03
 8.999999999999997585e-03
 9.000000000000001055e-03
 1.100000000000000110e-02
 1.100000000000000283e-02
 1.100000000000000110e-02
 1.100000000000000283e-02
 1.100000000000000283e-02
 1.100000000000000110e-02
 1.099999999999999069e-02
 1.100000000000000283e-02
 1.099999999999999589e-02
 1.100000000000000804e-02
 1.300000000000000461e-02
 1.300000000000000114e-02
 1.299999999999999593e-02
 1.300000000000000461e-02
 1.299999999999999940e-02
 1.299999999999999593e-02
 1.300000000000002195e-02
 1.300000000000000114e-02
 1.300000000000001155e-02
 1.299999999999999420e-02
 1.500000000000000465e-02
 1.499999999999999424e-02
 1.500000000000000118e-02
 1.499999999999999424e-02
 1.499999999999999771e-02
 1.499999999999999771e-02
 1.500000000000000465e-02
 1.499999999999998730e-02
 1.499999999999999771e-02
 1.500000000000001506e-02
 1.699999999999999775e-02
 1.700000000000000122e-02
 1.700000000000003245e-02
 1.699999999999999775e-02
 1.699999999999999775e-02
 1.700000000000000122e-02
 1.699999999999999775e-02
 1.699999999999999775e-02
 1.699999999999998040e-02
 1.700000000000001163e-02
 1.900000000000001341e-02
 1.900000000000000994e-02
 1.900000000000001688e-02
 1.900000000000001341e-02
 1.900000000000001341e-02
 1.900000000000001688e-02
 1.900000000000002381e-02
 1.900000000000000300e-02
 1.900000000000000994e-02
 1.900000000000001688e-02
 </DataArray>
 <DataArray Name="pos.z" type="Float32" NumberOfComponents="1" format="ascii">
 0.000000000000000000e+00
 0.000000000000000000e+00
 0.000000000000000000e+00
 0.000000000000000000e+00
 0.000000000000000000e+00
 0.000000000000000000e+00
 0.000000000000000000e+00
 0.000000000000000000e+00
 0.000000000000000000e+00
 0.000000000000000000e+00
 0.000000000000000000e+00
 0.000000000000000000e+00
 0.000000000000000000e+00
 0.000000000000000000e+00
 0.000000000000000000e+00
 0.000000000000000000e+00
 0.000000000000000000e+00
 0.000000000000000000e+00
 0.000000000000000000e+00
 0.000000000000000000e+00
 0.000000000000000000e+00
 0.000000000000000000e+00
 0.000000000000000000e+00
 0.000000000000000000e+00
 0.000000000000000000e+00
 0.000000000000000000e+00
 0.000000000000000000e+00
 0.000000000000000000e+00
 0.000000000000000000e+00
 0.000000000000000000e+00
 0.000000000000000000e+00
 0.000000000000000000e+00
 0.000000000000000000e+00
 0.000000000000000000e+00
 0.000000000000000000e+00
 0.000000000000000000e+00
 0.000000000000000000e+00
 0.000000000000000000e+00
 0.000000000000000000e+00
 0.000000000000000000e+00
 0.000000000000000000e+00
 0.000000000000000000e+00
 0.000000000000000000e+00
 0.000000000000000000e+00
 0.000000000000000000e+00
 0.000000000000000000e+00
 0.000000000000000000e+00
 0.000000000000000000e+00
 0.000000000000000000e+00
 0.000000000000000000e+00
 0.000000000000000000e+00
 0.000000000000000000e+00
 0.000000000000000000e+00
 0.000000000000000000e+00
 0.000000000000000000e+00
 0.000000000000000000e+00
 0.000000000000000000e+00
 0.000000000000000000e+00
 0.000000000000000000e+00
 0.000000000000000000e+00
 0.000000000000000000e+00
 0.000000000000000000e+00
 0.000000000000000000e+00
 0.000000000000000000e+00
 0.000000000000000000e+00
 0.000000000000000000e+00
 0.000000000000000000e+00
 0.000000000000000000e+00
 0.000000000000000000e+00
 0.000000000000000000e+00
 0.000000000000000000e+00
 0.000000000000000000e+00
 0.000000000000000000e+00
 0.000000000000000000e+00
 0.000000000000000000e+00
 0.000000000000000000e+00
 0.000000000000000000e+00
 0.000000000000000000e+00
 0.000000000000000000e+00
 0.000000000000000000e+00
 0.000000000000000000e+00
 0.000000000000000000e+00
 0.000000000000000000e+00
 0.000000000000000000e+00
 0.000000000000000000e+00
 0.000000000000000000e+00
 0.000000000000000000e+00
 0.000000000000000000e+00
 0.000000000000000000e+00
 0.000000000000000000e+00
 0.000000000000000000e+00
 0.000000000000000000e+00
 0.000000000000000000e+00
 0.000000000000000000e+00
 0.000000000000000000e+00
 0.000000000000000000e+00
 0.000000000000000000e+00
 0.000000000000000000e+00
 0.000000000000000000e+00
 0.000000000000000000e+00
 </DataArray>
 <DataArray Name="volume" type="Float32" NumberOfComponents="1" format="ascii">
 5.999999999999999960e-09
 6.000000000000000787e-09
 6.000000000000008232e-09
 5.999999999999994997e-09
 5.999999999999999133e-09
 6.000000000000014849e-09
 5.999999999999989207e-09
 5.999999999999998306e-09
 5.999999999999994170e-09
 6.000000000000002442e-09
 1.800000000000000898e-08
 1.799999999999999905e-08
 1.800000000000001891e-08
 1.799999999999999244e-08
 1.799999999999995604e-08
 1.800000000000003214e-08
 1.799999999999998913e-08
 1.800000000000003214e-08
 1.799999999999993288e-08
 1.799999999999999905e-08
 3.000000000000005688e-08
 3.000000000000000394e-08
 3.000000000000002379e-08
 3.000000000000002379e-08
 3.000000000000003702e-08
 3.000000000000005026e-08
 3.000000000000001055e-08
 3.000000000000002379e-08
 3.000000000000006349e-08
 3.000000000000000394e-08
 4.199999999999995919e-08
 4.199999999999995257e-08
 4.200000000000006507e-08
 4.199999999999991948e-08
 4.200000000000001213e-08
 4.200000000000001213e-08
 4.199999999999994595e-08
 4.199999999999989963e-08
 4.200000000000007169e-08
 4.199999999999988640e-08
 5.400000000000004017e-08
 5.400000000000006664e-08
 5.400000000000008649e-08
 5.400000000000000047e-08
 5.400000000000000047e-08
 5.400000000000006664e-08
 5.400000000000000047e-08
 5.400000000000000047e-08
 5.400000000000004679e-08
 5.399999999999999385e-08
 6.600000000000012777e-08
 6.600000000000003513e-08
 6.599999999999998219e-08
 6.600000000000006160e-08
 6.600000000000006160e-08
 6.600000000000011454e-08
 6.600000000000006160e-08
 6.600000000000006160e-08
 6.600000000000008807e-08
 6.600000000000000866e-08
 7.799999999999999700e-08
 7.799999999999999700e-08
 7.799999999999997053e-08
 7.799999999999989112e-08
 7.799999999999999700e-08
 7.800000000000006317e-08
 7.799999999999999700e-08
 7.799999999999998376e-08
 7.800000000000007641e-08
 7.799999999999990436e-08
 8.999999999999987946e-08
 8.999999999999989270e-08
 9.000000000000018386e-08
 8.999999999999998534e-08
 8.999999999999989270e-08
 8.999999999999998534e-08
 8.999999999999987946e-08
 8.999999999999987946e-08
 8.999999999999998534e-08
 8.999999999999981329e-08
 1.020000000000002648e-07
 1.020000000000001060e-07
 1.020000000000000928e-07
 1.020000000000000531e-07
 1.020000000000000531e-07
 1.020000000000001854e-07
 1.020000000000000531e-07
 1.020000000000000531e-07
 1.019999999999998281e-07
 1.020000000000002516e-07
 1.139999999999998958e-07
 1.140000000000001738e-07
 1.140000000000003194e-07
 1.139999999999999488e-07
 1.139999999999999488e-07
 1.140000000000001076e-07
 1.139999999999999488e-07
 1.139999999999999620e-07
 1.139999999999997370e-07
 1.140000000000001738e-07
 </DataArray>
 <DataArray Name="rho" type="Float32" NumberOfComponents="1" format="ascii">
 1.574608190165310562e-01
 1.574608175087831574e-01
 1.574608150893442582e-01
 1.574608117209794489e-01
 1.574608075139440067e-01
 1.574608024446618182e-01
 1.574607969669436780e-01
 1.574607903606027592e-01
 1.574607846941222244e-01
 1.574607739676730789e-01
 1.574608197359045336e-01
 1.574608198397065562e-01
 1.574608199597276603e-01
 1.574608200539898972e-01
 1.574608200817544379e-01
 1.574608200084410270e-01
 1.574608198071335841e-01
 1.574608194427280505e-01
 1.574608189460063035e-01
 1.574608180798168500e-01
 1.574608196895884715e-01
 1.574608197056017456e-01
 1.574608197328067061e-01
 1.574608197701048984e-01
 1.574608198133920223e-01
 1.574608198580234597e-01
 1.574608198968948658e-01
 1.574608199246884110e-01
 1.574608199350264193e-01
 1.574608199048687096e-01
 1.574608196845720398e-01
 1.574608196873042709e-01
 1.574608196926486903e-01
 1.574608197012046795e-01
 1.574608197131355525e-01
 1.574608197284276812e-01
 1.574608197467378956e-01
 1.574608197674020882e-01
 1.574608197885296323e-01
 1.574608198077116772e-01
 1.574608196838373220e-01
 1.574608196843712282e-01
 1.574608196854512532e-01
 1.574608196872778754e-01
 1.574608196900295909e-01
 1.574608196938749038e-01
 1.574608196988892261e-01
 1.574608197052317637e-01
 1.574608197126101117e-01
 1.574608197215608130e-01
 1.574608196837068708e-01
 1.574608196838430119e-01
 1.574608196840929508e-01
 1.574608196844752284e-01
 1.574608196850194597e-01
 1.574608196857617548e-01
 1.574608196867658128e-01
 1.574608196881170652e-01
 1.574608196898986123e-01
 1.574608196924602299e-01
 1.574608196836566332e-01
 1.574608196836367602e-01
 1.574608196835836638e-01
 1.574608196835391993e-01
 1.574608196836409513e-01
 1.574608196840717456e-01
 1.574608196851360886e-01
 1.574608196871524757e-01
 1.574608196904168367e-01
 1.574608196963935558e-01
 1.574608196836746188e-01
 1.574608196839480667e-01
 1.574608196851063624e-01
 1.574608196879434541e-01
 1.574608196933846571e-01
 1.574608197022581424e-01
 1.574608197154819533e-01
 1.574608197340509885e-01
 1.574608197581393310e-01
 1.574608197928422382e-01
 1.574608196858696407e-01
 1.574608196933516835e-01
 1.574608197091089123e-01
 1.574608197354780970e-01
 1.574608197743506133e-01
 1.574608198274077553e-01
 1.574608198956869154e-01
 1.574608199814716003e-01
 1.574608200830921456e-01
 1.574608202133434276e-01
 1.574608197123502640e-01
 1.574608197814835187e-01
 1.574608198916388757e-01
 1.574608200410111680e-01
 1.574608202266919166e-01
 1.574608204476142803e-01
 1.574608206994804749e-01
 1.574608209849033269e-01
 1.574608212935195428e-01
 1.574608216515210601e-01
 </DataArray>
 <DataArray Name="vel.x" type="Float32" NumberOfComponents="1" format="ascii">
 9.985701176898164704e+03
 9.985701177249296961e+03
 9.985701177879904208e+03
 9.985701178786921446e+03
 9.985701179927587873e+03
 9.985701181297468793e+03
 9.985701182777102076e+03
 9.985701184553370695e+03
 9.985701186087162569e+03
 9.985701189040195459e+03
 9.985701176770517122e+03
 9.985701176749609658e+03
 9.985701176721142474e+03
 9.985701176686576218e+03
 9.985701176672315341e+03
 9.985701176683569429e+03
 9.985701176720658623e+03
 9.985701176797356311e+03
 9.985701176914692041e+03
 9.985701177076873137e+03
 9.985701176777589353e+03
 9.985701176774622581e+03
 9.985701176768914593e+03
 9.985701176760356248e+03
 9.985701176749638762e+03
 9.985701176737184142e+03
 9.985701176726397534e+03
 9.985701176717002454e+03
 9.985701176711605513e+03
 9.985701176715940164e+03
 9.985701176778557056e+03
 9.985701176777856745e+03
 9.985701176776679858e+03
 9.985701176774828127e+03
 9.985701176772150575e+03
 9.985701176768607183e+03
 9.985701176764139746e+03
 9.985701176758380825e+03
 9.985701176753291293e+03
 9.985701176745738849e+03
 9.985701176778758963e+03
 9.985701176778651643e+03
 9.985701176778406079e+03
 9.985701176777905857e+03
 9.985701176777165529e+03
 9.985701176776174179e+03
 9.985701176775033673e+03
 9.985701176773391126e+03
 9.985701176771533937e+03
 9.985701176769211088e+03
 9.985701176778811714e+03
 9.985701176778813533e+03
 9.985701176778726222e+03
 9.985701176778640729e+03
 9.985701176778477020e+03
 9.985701176778296940e+03
 9.985701176778029549e+03
 9.985701176777745786e+03
 9.985701176777260116e+03
 9.985701176776898137e+03
 9.985701176778869922e+03
 9.985701176778831723e+03
 9.985701176778806257e+03
 9.985701176778793524e+03
 9.985701176778789886e+03
 9.985701176778666195e+03
 9.985701176778366062e+03
 9.985701176777820365e+03
 9.985701176777085493e+03
 9.985701176775772183e+03
 9.985701176778868103e+03
 9.985701176778831723e+03
 9.985701176778553418e+03
 9.985701176777834917e+03
 9.985701176776528882e+03
 9.985701176774595297e+03
 9.985701176771766768e+03
 9.985701176767393918e+03
 9.985701176762437171e+03
 9.985701176750102604e+03
 9.985701176778251465e+03
 9.985701176776781722e+03
 9.985701176773654879e+03
 9.985701176768083315e+03
 9.985701176759515874e+03
 9.985701176747223144e+03
 9.985701176731285159e+03
 9.985701176709631909e+03
 9.985701176687354746e+03
 9.985701176636966920e+03
 9.985701176774156920e+03
 9.985701176761289389e+03
 9.985701176737753485e+03
 9.985701176703258170e+03
 9.985701176658636541e+03
 9.985701176603430213e+03
 9.985701176541506356e+03
 9.985701176464561286e+03
 9.985701176394999493e+03
 9.985701176251513971e+03
 </DataArray>
 <DataArray Name="vel.y" type="Float32" NumberOfComponents="1" format="ascii">
 2.354080640184249266e-05
 5.670743647516362016e-05
 8.984224526389230996e-05
 1.206958202823690839e-04
 1.481293474002672353e-04
 1.734945043111293722e-04
 1.944466647443368883e-04
 2.152072295482874433e-04
 2.291331308322545521e-04
 2.491708398571661816e-04
 8.387467723635104108e-06
 2.106367906002793629e-05
 3.506557038967904197e-05
 4.942412041133834353e-05
 6.346217716072898160e-05
 7.751955694137081679e-05
 9.027090140537463324e-05
 1.038657854867164375e-04
 1.137441326088969677e-04
 1.299072416656341068e-04
 4.931422952106559449e-06
 1.226483969150886686e-05
 2.028018111244913024e-05
 2.852326351309996622e-05
 3.675083922706180527e-05
 4.520981887800525377e-05
 5.324545582008014942e-05
 6.217784897470612600e-05
 6.921552127830237747e-05
 8.200721507891217535e-05
 3.509604532304702906e-06
 8.705763942654958488e-06
 1.435008552905682190e-05
 2.011980789422995091e-05
 2.586287088562883759e-05
 3.175840448310636801e-05
 3.739409232864620832e-05
 4.368412232346635568e-05
 4.870147359755817710e-05
 5.795729834796979759e-05
 2.727503616056911852e-06
 6.761484415374498129e-06
 1.113508206201271382e-05
 1.559581300057613103e-05
 2.002539466997951714e-05
 2.456425093864513177e-05
 2.889446702413815435e-05
 3.372246250780032829e-05
 3.757479562091010005e-05
 4.469887808147250750e-05
 2.231100993482307140e-06
 5.529983421431816860e-06
 9.104827930229614477e-06
 1.274867974462872864e-05
 1.636434648628220558e-05
 2.006673892572754893e-05
 2.359548537611108241e-05
 2.752760573583192509e-05
 3.066126740746803216e-05
 3.645387150776832765e-05
 1.887741136911090747e-06
 4.678813950150980223e-06
 7.703211830902303677e-06
 1.078591960018947565e-05
 1.384408960534786756e-05
 1.697495711293575834e-05
 1.995635826574075378e-05
 2.327691602685625139e-05
 2.591787301232630886e-05
 3.079007074005529466e-05
 1.636061815029799645e-06
 4.054928504671572594e-06
 6.674060975214698895e-06
 9.339777110715568462e-06
 1.197594913512944529e-05
 1.466653471432301393e-05