<VTKFile type="UnstructuredGrid" byte_order="BigEndian">
<UnstructuredGrid><Piece NumberOfPoints="3906" NumberOfCells="3750">
<Points>
 <DataArray type="Float32" NumberOfComponents="3" format="ascii">
 0.000000000000000000e+00 0.000000000000000000e+00 0.000000000000000000e+00
 2.349080517888069153e-03 0.000000000000000000e+00 0.000000000000000000e+00
 4.670635797083377838e-03 0.000000000000000000e+00 0.000000000000000000e+00
 6.938416510820388794e-03 0.000000000000000000e+00 0.000000000000000000e+00
 9.128598496317863464e-03 0.000000000000000000e+00 0.000000000000000000e+00
 1.122071035206317902e-02 0.000000000000000000e+00 0.000000000000000000e+00
 1.319826301187276840e-02 0.000000000000000000e+00 0.000000000000000000e+00
 1.504905428737401962e-02 0.000000000000000000e+00 0.000000000000000000e+00
 1.676518097519874573e-02 0.000000000000000000e+00 0.000000000000000000e+00
 1.834277436137199402e-02 0.000000000000000000e+00 0.000000000000000000e+00
 1.978156343102455139e-02 0.000000000000000000e+00 0.000000000000000000e+00
 2.108429931104183197e-02 0.000000000000000000e+00 0.000000000000000000e+00
 2.225614152848720551e-02 0.000000000000000000e+00 0.000000000000000000e+00
 2.330404520034790039e-02 0.000000000000000000e+00 0.000000000000000000e+00
 2.423618920147418976e-02 0.000000000000000000e+00 0.000000000000000000e+00
 2.506147697567939758e-02 0.000000000000000000e+00 0.000000000000000000e+00
 2.578912675380706787e-02 0.000000000000000000e+00 0.000000000000000000e+00
 2.642834186553955078e-02 0.000000000000000000e+00 0.000000000000000000e+00
 2.698806673288345337e-02 0.000000000000000000e+00 0.000000000000000000e+00
 2.747680433094501495e-02 0.000000000000000000e+00 0.000000000000000000e+00
 2.790250815451145172e-02 0.000000000000000000e+00 0.000000000000000000e+00
 2.827251143753528595e-02 0.000000000000000000e+00 0.000000000000000000e+00
 2.859350293874740601e-02 0.000000000000000000e+00 0.000000000000000000e+00
 2.887152694165706635e-02 0.000000000000000000e+00 0.000000000000000000e+00
 2.911199443042278290e-02 0.000000000000000000e+00 0.000000000000000000e+00
 2.931972779333591461e-02 0.000000000000000000e+00 0.000000000000000000e+00
 2.949899621307849884e-02 0.000000000000000000e+00 0.000000000000000000e+00
 2.965355850756168365e-02 0.000000000000000000e+00 0.000000000000000000e+00
 2.978671714663505554e-02 0.000000000000000000e+00 0.000000000000000000e+00
 2.990135923027992249e-02 0.000000000000000000e+00 0.000000000000000000e+00
 2.999999932944774628e-02 0.000000000000000000e+00 0.000000000000000000e+00
 0.000000000000000000e+00 8.623100256954785436e-06 0.000000000000000000e+00
 2.349080517888069153e-03 8.623100256954785436e-06 0.000000000000000000e+00
 4.670635797083377838e-03 8.623100256954785436e-06 0.000000000000000000e+00
 6.938416510820388794e-03 8.623100256954785436e-06 0.000000000000000000e+00
 9.128598496317863464e-03 8.623100256954785436e-06 0.000000000000000000e+00
 1.122071035206317902e-02 8.623100256954785436e-06 0.000000000000000000e+00
 1.319826301187276840e-02 8.623100256954785436e-06 0.000000000000000000e+00
 1.504905428737401962e-02 8.623100256954785436e-06 0.000000000000000000e+00
 1.676518097519874573e-02 8.623100256954785436e-06 0.000000000000000000e+00
 1.834277436137199402e-02 8.623100256954785436e-06 0.000000000000000000e+00
 1.978156343102455139e-02 8.623100256954785436e-06 0.000000000000000000e+00
 2.108429931104183197e-02 8.623100256954785436e-06 0.000000000000000000e+00
 2.225614152848720551e-02 8.623100256954785436e-06 0.000000000000000000e+00
 2.330404520034790039e-02 8.623100256954785436e-06 0.000000000000000000e+00
 2.423618920147418976e-02 8.623100256954785436e-06 0.000000000000000000e+00
 2.506147697567939758e-02 8.623100256954785436e-06 0.000000000000000000e+00
 2.578912675380706787e-02 8.623100256954785436e-06 0.000000000000000000e+00
 2.642834186553955078e-02 8.623100256954785436e-06 0.000000000000000000e+00
 2.698806673288345337e-02 8.623100256954785436e-06 0.000000000000000000e+00
 2.747680433094501495e-02 8.623100256954785436e-06 0.000000000000000000e+00
 2.790250815451145172e-02 8.623100256954785436e-06 0.000000000000000000e+00
 2.827251143753528595e-02 8.623100256954785436e-06 0.000000000000000000e+00
 2.859350293874740601e-02 8.623100256954785436e-06 0.000000000000000000e+00
 2.887152694165706635e-02 8.623100256954785436e-06 0.000000000000000000e+00
 2.911199443042278290e-02 8.623100256954785436e-06 0.000000000000000000e+00
 2.931972779333591461e-02 8.623100256954785436e-06 0.000000000000000000e+00
 2.949899621307849884e-02 8.623100256954785436e-06 0.000000000000000000e+00
 2.965355850756168365e-02 8.623100256954785436e-06 0.000000000000000000e+00
 2.978671714663505554e-02 8.623100256954785436e-06 0.000000000000000000e+00
 2.990135923027992249e-02 8.623100256954785436e-06 0.000000000000000000e+00
 2.999999932944774628e-02 8.623100256954785436e-06 0.000000000000000000e+00
 0.000000000000000000e+00 1.761597741278819740e-05 0.000000000000000000e+00
 2.349080517888069153e-03 1.761597741278819740e-05 0.000000000000000000e+00
 4.670635797083377838e-03 1.761597741278819740e-05 0.000000000000000000e+00
 6.938416510820388794e-03 1.761597741278819740e-05 0.000000000000000000e+00
 9.128598496317863464e-03 1.761597741278819740e-05 0.000000000000000000e+00
 1.122071035206317902e-02 1.761597741278819740e-05 0.000000000000000000e+00
 1.319826301187276840e-02 1.761597741278819740e-05 0.000000000000000000e+00
 1.504905428737401962e-02 1.761597741278819740e-05 0.000000000000000000e+00
 1.676518097519874573e-02 1.761597741278819740e-05 0.000000000000000000e+00
 1.834277436137199402e-02 1.761597741278819740e-05 0.000000000000000000e+00
 1.978156343102455139e-02 1.761597741278819740e-05 0.000000000000000000e+00
 2.108429931104183197e-02 1.761597741278819740e-05 0.000000000000000000e+00
 2.225614152848720551e-02 1.761597741278819740e-05 0.000000000000000000e+00
 2.330404520034790039e-02 1.761597741278819740e-05 0.000000000000000000e+00
 2.423618920147418976e-02 1.761597741278819740e-05 0.000000000000000000e+00
 2.506147697567939758e-02 1.761597741278819740e-05 0.000000000000000000e+00
 2.578912675380706787e-02 1.761597741278819740e-05 0.000000000000000000e+00
 2.642834186553955078e-02 1.761597741278819740e-05 0.000000000000000000e+00
 2.698806673288345337e-02 1.761597741278819740e-05 0.000000000000000000e+00
 2.747680433094501495e-02 1.761597741278819740e-05 0.000000000000000000e+00
 2.790250815451145172e-02 1.761597741278819740e-05 0.000000000000000000e+00
 2.827251143753528595e-02 1.761597741278819740e-05 0.000000000000000000e+00
 2.859350293874740601e-02 1.761597741278819740e-05 0.000000000000000000e+00
 2.887152694165706635e-02 1.761597741278819740e-05 0.000000000000000000e+00
 2.911199443042278290e-02 1.761597741278819740e-05 0.000000000000000000e+00
 2.931972779333591461e-02 1.761597741278819740e-05 0.000000000000000000e+00
 2.949899621307849884e-02 1.761597741278819740e-05 0.000000000000000000e+00
 2.965355850756168365e-02 1.761597741278819740e-05 0.000000000000000000e+00
 2.978671714663505554e-02 1.761597741278819740e-05 0.000000000000000000e+00
 2.990135923027992249e-02 1.761597741278819740e-05 0.000000000000000000e+00
 2.999999932944774628e-02 1.761597741278819740e-05 0.000000000000000000e+00
 0.000000000000000000e+00 2.699431206565350294e-05 0.000000000000000000e+00
 2.349080517888069153e-03 2.699431206565350294e-05 0.000000000000000000e+00
 4.670635797083377838e-03 2.699431206565350294e-05 0.000000000000000000e+00
 6.938416510820388794e-03 2.699431206565350294e-05 0.000000000000000000e+00
 9.128598496317863464e-03 2.699431206565350294e-05 0.000000000000000000e+00
 1.122071035206317902e-02 2.699431206565350294e-05 0.000000000000000000e+00
 1.319826301187276840e-02 2.699431206565350294e-05 0.000000000000000000e+00
 1.504905428737401962e-02 2.699431206565350294e-05 0.000000000000000000e+00
 1.676518097519874573e-02 2.699431206565350294e-05 0.000000000000000000e+00
 1.834277436137199402e-02 2.699431206565350294e-05 0.000000000000000000e+00
 1.978156343102455139e-02 2.699431206565350294e-05 0.000000000000000000e+00
 2.108429931104183197e-02 2.699431206565350294e-05 0.000000000000000000e+00
 2.225614152848720551e-02 2.699431206565350294e-05 0.000000000000000000e+00
 2.330404520034790039e-02 2.699431206565350294e-05 0.000000000000000000e+00
 2.423618920147418976e-02 2.699431206565350294e-05 0.000000000000000000e+00
 2.506147697567939758e-02 2.699431206565350294e-05 0.000000000000000000e+00
 2.578912675380706787e-02 2.699431206565350294e-05 0.000000000000000000e+00
 2.642834186553955078e-02 2.699431206565350294e-05 0.000000000000000000e+00
 2.698806673288345337e-02 2.699431206565350294e-05 0.000000000000000000e+00
 2.747680433094501495e-02 2.699431206565350294e-05 0.000000000000000000e+00
 2.790250815451145172e-02 2.699431206565350294e-05 0.000000000000000000e+00
 2.827251143753528595e-02 2.699431206565350294e-05 0.000000000000000000e+00
 2.859350293874740601e-02 2.699431206565350294e-05 0.000000000000000000e+00
 2.887152694165706635e-02 2.699431206565350294e-05 0.000000000000000000e+00
 2.911199443042278290e-02 2.699431206565350294e-05 0.000000000000000000e+00
 2.931972779333591461e-02 2.699431206565350294e-05 0.000000000000000000e+00
 2.949899621307849884e-02 2.699431206565350294e-05 0.000000000000000000e+00
 2.965355850756168365e-02 2.699431206565350294e-05 0.000000000000000000e+00
 2.978671714663505554e-02 2.699431206565350294e-05 0.000000000000000000e+00
 2.990135923027992249e-02 2.699431206565350294e-05 0.000000000000000000e+00
 2.999999932944774628e-02 2.699431206565350294e-05 0.000000000000000000e+00
 0.000000000000000000e+00 3.677442873595282435e-05 0.000000000000000000e+00
 2.349080517888069153e-03 3.677442873595282435e-05 0.000000000000000000e+00
 4.670635797083377838e-03 3.677442873595282435e-05 0.000000000000000000e+00
 6.938416510820388794e-03 3.677442873595282435e-05 0.000000000000000000e+00
[...]
<CellData>
 <DataArray Name="pos.x" type="Float32" NumberOfComponents="1" format="ascii">
 1.174540262590806480e-03
 3.509858235623772912e-03
 5.804526126537119281e-03
 8.033507372440204172e-03
 1.017465456001863389e-02
 1.220948667377177652e-02
 1.412365858081643041e-02
 1.590711750280028244e-02
 1.755397753710562572e-02
 1.906216886804099758e-02
 2.043293103079392437e-02
 2.167022039043536505e-02
 2.278009383341129263e-02
 2.377011727520945625e-02
 2.464883244698518397e-02
 2.542530115496961438e-02
 2.610873437865414079e-02
 2.670820481779074412e-02
 2.723243576491703871e-02
 2.768965602259116157e-02
 2.808750939305778085e-02
 2.843300742986185417e-02
 2.873251512917844586e-02
 2.899176064707562409e-02
 2.921586167218762076e-02
 2.940936257944308171e-02
 2.957627783710108788e-02
 2.972013829020362513e-02
 2.984403788890484938e-02
 2.995067918200466223e-02
 1.174540262590806480e-03
 3.509858235623772044e-03
 5.804526126537123618e-03
 8.033507372440202438e-03
 1.017465456001863909e-02
 1.220948667377177478e-02
 1.412365858081642694e-02
 1.590711750280028938e-02
 1.755397753710553552e-02
 1.906216886804104615e-02
 2.043293103079386885e-02
 2.167022039043538240e-02
 2.278009383341130303e-02
 2.377011727520947360e-02
 2.464883244698512846e-02
 2.542530115496977744e-02
 2.610873437865419283e-02
 2.670820481779081004e-02
 2.723243576491675769e-02
 2.768965602259132464e-02
 2.808750939305780514e-02
 2.843300742986172580e-02
 2.873251512917834871e-02
 2.899176064707536041e-02
 2.921586167218756525e-02
 2.940936257944290824e-02
 2.957627783710197952e-02
 2.972013829020326084e-02
 2.984403788890479386e-02
 2.995067918200606041e-02
 1.174540262590806046e-03
 3.509858235623772044e-03
 5.804526126537121883e-03
 8.033507372440204172e-03
 1.017465456001863736e-02
 1.220948667377177825e-02
 1.412365858081644082e-02
 1.590711750280029979e-02
 1.755397753710560491e-02
 1.906216886804095942e-02
 2.043293103079391049e-02
 2.167022039043539974e-02
 2.278009383341119201e-02
 2.377011727520952911e-02
 2.464883244698515968e-02
 2.542530115496962825e-02
 2.610873437865418589e-02
 2.670820481779093147e-02
 2.723243576491680279e-02
 2.768965602259146341e-02
 2.808750939305802372e-02
 2.843300742986100416e-02
 2.873251512917884831e-02
 2.899176064707510714e-02
 2.921586167218726340e-02
 2.940936257944225252e-02
 2.957627783710363445e-02
 2.972013829020226164e-02
 2.984403788890583817e-02
 2.995067918200337159e-02
 1.174540262590806263e-03
 3.509858235623772912e-03
 5.804526126537122750e-03
 8.033507372440205907e-03
 1.017465456001863042e-02
 1.220948667377176437e-02
 1.412365858081645296e-02
 1.590711750280028591e-02
 1.755397753710554593e-02
 1.906216886804102881e-02
 2.043293103079387579e-02
 2.167022039043545178e-02
 2.278009383341118507e-02
 2.377011727520924461e-02
 2.464883244698521866e-02
 2.542530115496975315e-02
 2.610873437865413385e-02
 2.670820481779065392e-02
 2.723243576491713933e-02
 2.768965602259095687e-02
 2.808750939305780167e-02
 2.843300742986164600e-02
 2.873251512917884484e-02
 2.899176064707587736e-02
 2.921586167218711075e-02
 2.940936257944255783e-02
 2.957627783710231953e-02
 2.972013829020368758e-02
 2.984403788890459958e-02
 2.995067918200418344e-02
 1.174540262590806480e-03
 3.509858235623772044e-03
 5.804526126537120148e-03
 8.033507372440207642e-03
 1.017465456001863215e-02
 1.220948667377178519e-02
 1.412365858081643562e-02
 1.590711750280031367e-02
 1.755397753710554593e-02
 1.906216886804100452e-02
 2.043293103079393477e-02
 2.167022039043545525e-02
 2.278009383341128569e-02
 2.377011727520930706e-02
 2.464883244698519785e-02
 2.542530115496979132e-02
 2.610873437865406099e-02
 2.670820481779070943e-02
 2.723243576491679932e-02
 2.768965602259149811e-02
 2.808750939305726738e-02
 2.843300742986138233e-02
 2.873251512917840769e-02
 2.899176064707519387e-02
 2.921586167218805444e-02
 2.940936257944273824e-02
 2.957627783710269770e-02
 2.972013829020270573e-02
 2.984403788890559531e-02
 2.995067918200425283e-02
 1.174540262590806046e-03
 3.509858235623772912e-03
 5.804526126537119281e-03
 8.033507372440202438e-03
 1.017465456001863562e-02
 1.220948667377178519e-02
 1.412365858081642001e-02
 1.590711750280030673e-02
 1.755397753710556674e-02
 1.906216886804098717e-02
 2.043293103079389661e-02
 2.167022039043541015e-02
 2.278009383341128916e-02
 2.377011727520940074e-02
 2.464883244698529846e-02
 2.542530115496970458e-02
 2.610873437865393609e-02
 2.670820481779067820e-02
 2.723243576491716014e-02
 2.768965602259130035e-02
 2.808750939305782596e-02
 2.843300742986186458e-02
 2.873251512917900444e-02
 2.899176064707555817e-02
 2.921586167218737790e-02
 2.940936257944288743e-02
 2.957627783710238198e-02
 2.972013829020287573e-02
 2.984403788890665349e-02
 2.995067918200341670e-02
 1.174540262590806263e-03
 3.509858235623772912e-03
 5.804526126537119281e-03
 8.033507372440202438e-03
 1.017465456001862695e-02
 1.220948667377179213e-02
 1.412365858081643388e-02
 1.590711750280032755e-02
 1.755397753710553552e-02
 1.906216886804107738e-02
 2.043293103079386885e-02
 2.167022039043548995e-02
 2.278009383341115732e-02
 2.377011727520941808e-02
 2.464883244698524642e-02
 2.542530115496989540e-02
 2.610873437865414426e-02
 2.670820481779069555e-02
 2.723243576491686871e-02
 2.768965602259129341e-02
 2.808750939305788841e-02
 2.843300742986104926e-02
 2.873251512917852565e-02
 2.899176064707527020e-02
 2.921586167218763117e-02
 2.940936257944257864e-02
 2.957627783710288852e-02
 2.972013829020310124e-02
 2.984403788890566123e-02
 2.995067918200422161e-02
 1.174540262590806480e-03
 3.509858235623772478e-03
 5.804526126537118413e-03
 8.033507372440205907e-03
 1.017465456001862695e-02
 1.220948667377177652e-02
 1.412365858081644776e-02
 1.590711750280029632e-02
 1.755397753710552858e-02
 1.906216886804106350e-02
 2.043293103079391396e-02
 2.167022039043543097e-02
 2.278009383341119548e-02
 2.377011727520932441e-02
 2.464883244698534009e-02
 2.542530115496972540e-02
 2.610873437865393262e-02
 2.670820481779074065e-02
 2.723243576491706994e-02
 2.768965602259115810e-02
 2.808750939305791963e-02
 2.843300742986139620e-02
 2.873251512917854647e-02
 2.899176064707565531e-02
 2.921586167218709340e-02
 2.940936257944328294e-02
 2.957627783710130645e-02
 2.972013829020429126e-02
 2.984403788890552245e-02
 2.995067918200437079e-02
 1.174540262590805179e-03
 3.509858235623772478e-03
 5.804526126537124485e-03
 8.033507372440195499e-03
 1.017465456001863909e-02
 1.220948667377178172e-02
 1.412365858081642347e-02
 1.590711750280033102e-02
 1.755397753710559450e-02
 1.906216886804103922e-02
 2.043293103079384110e-02
 2.167022039043538240e-02
 2.278009383341127875e-02
 2.377011727520947706e-02
 2.464883244698515274e-02
 2.542530115496966989e-02
 2.610873437865404365e-02
 2.670820481779070596e-02
 2.723243576491706300e-02
 2.768965602259108177e-02
 2.808750939305770106e-02
 2.843300742986187152e-02
 2.873251512917898709e-02
 2.899176064707541592e-02
 2.921586167218706218e-02
 2.940936257944288049e-02
 2.957627783710122318e-02
 2.972013829020532516e-02
 2.984403788890358997e-02
 2.995067918200295873e-02
 1.174540262590806697e-03
 3.509858235623772478e-03
 5.804526126537122750e-03
 8.033507372440204172e-03
 1.017465456001862868e-02
 1.220948667377179213e-02
 1.412365858081644256e-02
 1.590711750280029979e-02
 1.755397753710553552e-02
 1.906216886804100105e-02
 2.043293103079394171e-02
 2.167022039043534770e-02
 2.278009383341123364e-02
 2.377011727520944931e-02
 2.464883244698527764e-02
 2.542530115496964560e-02
 2.610873437865407487e-02
 2.670820481779085168e-02
 2.723243576491688953e-02
 2.768965602259151199e-02
 2.808750939305755187e-02
 2.843300742986153845e-02
 2.873251512917848055e-02
 2.899176064707570735e-02
 2.921586167218726340e-02
 2.940936257944370275e-02
 2.957627783710234728e-02
 2.972013829020332676e-02
 2.984403788890537326e-02
 2.995067918200320159e-02
 1.174540262590806914e-03
 3.509858235623771611e-03
 5.804526126537118413e-03
 8.033507372440202438e-03
 1.017465456001863215e-02
 1.220948667377179213e-02
 1.412365858081640960e-02
 1.590711750280031020e-02
 1.755397753710555980e-02
 1.906216886804099064e-02
 2.043293103079394171e-02
 2.167022039043535117e-02
 2.278009383341130997e-02
 2.377011727520930012e-02
 2.464883244698521519e-02
 2.542530115496973928e-02
 2.610873437865390834e-02
 2.670820481779082739e-02
 2.723243576491695891e-02
 2.768965602259120320e-02
 2.808750939305811392e-02
 2.843300742986122967e-02
 2.873251512917881015e-02
 2.899176064707576633e-02
 2.921586167218678809e-02
 2.940936257944290130e-02
 2.957627783710285729e-02
 2.972013829020446474e-02
 2.984403788890463080e-02
 2.995067918200395793e-02
 1.174540262590806046e-03
 3.509858235623772478e-03
 5.804526126537124485e-03
 8.033507372440198968e-03
 1.017465456001864256e-02
 1.220948667377178692e-02
 1.412365858081644256e-02
 1.590711750280029632e-02
 1.755397753710555633e-02
 1.906216886804101840e-02
 2.043293103079387926e-02
 2.167022039043526097e-02
 2.278009383341133426e-02
 2.377011727520944584e-02
 2.464883244698511805e-02
 2.542530115496953805e-02
 2.610873437865423793e-02
 2.670820481779097311e-02
 2.723243576491694851e-02
 2.768965602259087014e-02
 2.808750939305799249e-02
 2.843300742986148988e-02
 2.873251512917827585e-02
 2.899176064707604042e-02
 2.921586167218656258e-02
 2.940936257944330376e-02
 2.957627783710242708e-02
 2.972013829020365983e-02
 2.984403788890460651e-02
 2.995067918200464835e-02
 1.174540262590806263e-03
 3.509858235623771611e-03
 5.804526126537125352e-03
 8.033507372440205907e-03
 1.017465456001863389e-02
 1.220948667377178692e-02
 1.412365858081643909e-02
 1.590711750280032061e-02
 1.755397753710556674e-02
 1.906216886804099758e-02
 2.043293103079394171e-02
 2.167022039043538933e-02
 2.278009383341130997e-02
 2.377011727520955339e-02
 2.464883244698505560e-02
 2.542530115496970111e-02
 2.610873437865416855e-02
 2.670820481779081004e-02
 2.723243576491665707e-02
 2.768965602259111994e-02
 2.808750939305789882e-02
 2.843300742986206234e-02
 2.873251512917799136e-02
 2.899176064707589123e-02
 2.921586167218719055e-02
 2.940936257944301579e-02
 2.957627783710231259e-02
 2.972013829020344819e-02
 2.984403788890443998e-02
 2.995067918200280954e-02
 1.174540262590806046e-03
 3.509858235623772912e-03
 5.804526126537121883e-03
 8.033507372440209376e-03
 1.017465456001863042e-02
 1.220948667377176784e-02
 1.412365858081642001e-02
 1.590711750280031367e-02
 1.755397753710551123e-02
 1.906216886804103228e-02
 2.043293103079390008e-02
 2.167022039043543444e-02
 2.278009383341119548e-02
 2.377011727520949441e-02
 2.464883244698513193e-02
 2.542530115496970111e-02
 2.610873437865407834e-02
 2.670820481779098698e-02
 2.723243576491692769e-02
 2.768965602259130382e-02
 2.808750939305799943e-02
 2.843300742986202417e-02
 2.873251512917811626e-02
 2.899176064707545755e-02
 2.921586167218738136e-02
 2.940936257944291518e-02
 2.957627783710216687e-02
 2.972013829020496781e-02
 2.984403788890457529e-02
 2.995067918200295526e-02
 1.174540262590807130e-03
 3.509858235623772478e-03
 5.804526126537118413e-03
 8.033507372440211111e-03
 1.017465456001862521e-02
 1.220948667377179213e-02
 1.412365858081643041e-02
 1.590711750280031020e-02
 1.755397753710554939e-02
 1.906216886804104615e-02
 2.043293103079386192e-02
 2.167022039043544485e-02
 2.278009383341123364e-02
 2.377011727520949094e-02
 2.464883244698516662e-02
 2.542530115496965601e-02
 2.610873437865411997e-02
 2.670820481779062269e-02
 2.723243576491706647e-02
 2.768965602259099157e-02
 2.808750939305801678e-02
 2.843300742986187499e-02
 2.873251512917822728e-02
 2.899176064707560327e-02
 2.921586167218701707e-02
 2.940936257944325866e-02
 2.957627783710258321e-02
 2.972013829020254960e-02
 2.984403788890523448e-02
 2.995067918200517570e-02
 1.174540262590805829e-03
 3.509858235623773345e-03
 5.804526126537120148e-03
 8.033507372440207642e-03
 1.017465456001863562e-02
 1.220948667377178519e-02
 1.412365858081642001e-02
 1.590711750280028938e-02
 1.755397753710557021e-02
 1.906216886804102881e-02
 2.043293103079388620e-02
 2.167022039043547954e-02
 2.278009383341122324e-02
 2.377011727520952217e-02
 2.464883244698506601e-02
 2.542530115496959009e-02
 2.610873437865426222e-02
 2.670820481779092453e-02
 2.723243576491705953e-02
 2.768965602259101932e-02
 2.808750939305815555e-02
 2.843300742986168070e-02
 2.873251512917827585e-02
 2.899176064707541245e-02
 2.921586167218751667e-02
 2.940936257944303314e-02
 2.957627783710158748e-02
 2.972013829020386452e-02
 2.984403788890498815e-02
 2.995067918200389895e-02
 1.174540262590805829e-03
 3.509858235623774213e-03
 5.804526126537119281e-03
 8.033507372440204172e-03
 1.017465456001863562e-02
 1.220948667377178692e-02
 1.412365858081643215e-02
 1.590711750280029979e-02
 1.755397753710552511e-02
 1.906216886804102534e-02
 2.043293103079388620e-02
 2.167022039043545872e-02
 2.278009383341119548e-02
 2.377011727520950135e-02
 2.464883244698504519e-02
 2.542530115496969417e-02
 2.610873437865419630e-02
 2.670820481779075106e-02
 2.723243576491693116e-02
 2.768965602259102973e-02
 2.808750939305796127e-02
 2.843300742986185070e-02
 2.873251512917866790e-02
 2.899176064707516265e-02
 2.921586167218775260e-02
 2.940936257944229068e-02
 2.957627783710270811e-02
 2.972013829020431208e-02
 2.984403788890418671e-02
 2.995067918200482529e-02
 1.174540262590805613e-03
 3.509858235623773345e-03
 5.804526126537115811e-03
 8.033507372440204172e-03
 1.017465456001864083e-02
 1.220948667377177131e-02
 1.412365858081643215e-02
 1.590711750280031714e-02
 1.755397753710555286e-02
 1.906216886804104962e-02
 2.043293103079385498e-02
 2.167022039043542750e-02
 2.278009383341134120e-02
 2.377011727520934523e-02
 2.464883244698525336e-02
 2.542530115496958662e-02
 2.610873437865423446e-02
 2.670820481779078923e-02
 2.723243576491694504e-02
 2.768965602259093953e-02
 2.808750939305777392e-02
 2.843300742986198948e-02
 2.873251512917882056e-02
 2.899176064707558592e-02
 2.921586167218699973e-02
 2.940936257944344948e-02
 2.957627783710263872e-02
 2.972013829020299369e-02
 2.984403788890578266e-02
 2.995067918200450957e-02
 1.174540262590806480e-03
 3.509858235623772044e-03
 5.804526126537119281e-03
 8.033507372440207642e-03
 1.017465456001864083e-02
 1.220948667377177131e-02
 1.412365858081645123e-02
 1.590711750280029632e-02
 1.755397753710552164e-02
 1.906216886804102534e-02
 2.043293103079391743e-02
 2.167022039043543444e-02
 2.278009383341122671e-02
 2.377011727520935216e-02
 2.464883244698526030e-02
 2.542530115496984336e-02
 2.610873437865396732e-02
 2.670820481779096270e-02
 2.723243576491675075e-02
 2.768965602259157444e-02
 2.808750939305750677e-02
 2.843300742986194438e-02
 2.873251512917882750e-02
 2.899176064707586695e-02
 2.921586167218721483e-02
 2.940936257944280069e-02
 2.957627783710196911e-02
 2.972013829020328859e-02
 2.984403788890397854e-02
 2.995067918200505427e-02
 1.174540262590805613e-03
 3.509858235623772044e-03
 5.804526126537119281e-03
 8.033507372440204172e-03
 1.017465456001863389e-02
 1.220948667377178866e-02
 1.412365858081641133e-02
 1.590711750280030326e-02
 1.755397753710556674e-02
 1.906216886804099064e-02
 2.043293103079392090e-02
 2.167022039043539627e-02
 2.278009383341122671e-02
 2.377011727520941461e-02
 2.464883244698531234e-02
 2.542530115496957968e-02
 2.610873437865414079e-02
 2.670820481779085515e-02
 2.723243576491685483e-02
 2.768965602259098463e-02
 2.808750939305802025e-02
 2.843300742986184723e-02
 2.873251512917827585e-02
 2.899176064707570388e-02
 2.921586167218746116e-02
 2.940936257944256130e-02
 2.957627783710244443e-02
 2.972013829020347594e-02
 2.984403788890543918e-02
 2.995067918200399609e-02
 1.174540262590806697e-03
 3.509858235623772044e-03
 5.804526126537120148e-03
 8.033507372440204172e-03
 1.017465456001864429e-02
 1.220948667377176958e-02
 1.412365858081642694e-02
 1.590711750280033795e-02
 1.755397753710558409e-02
 1.906216886804098717e-02
 2.043293103079389314e-02
 2.167022039043540668e-02
 2.278009383341120936e-02
 2.377011727520931747e-02
 2.464883244698530193e-02
 2.542530115496971152e-02
 2.610873437865409916e-02
 2.670820481779076147e-02
 2.723243576491723647e-02
 2.768965602259059258e-02
 2.808750939305819719e-02
 2.843300742986146212e-02
 2.873251512917881709e-02
 2.899176064707514183e-02
 2.921586167218760341e-02
 2.940936257944237742e-02
 2.957627783710315567e-02
 2.972013829020369452e-02
 2.984403788890484591e-02
 2.995067918200495366e-02
 1.174540262590806046e-03
 3.509858235623772912e-03
 5.804526126537120148e-03
 8.033507372440205907e-03
 1.017465456001864083e-02
 1.220948667377176611e-02
 1.412365858081642868e-02
 1.590711750280029979e-02
 1.755397753710557021e-02
 1.906216886804106003e-02
 2.043293103079386885e-02
 2.167022039043547260e-02
 2.278009383341121283e-02
 2.377011727520943543e-02
 2.464883244698521172e-02
 2.542530115496961091e-02
 2.610873437865419630e-02
 2.670820481779100780e-02
 2.723243576491708728e-02
 2.768965602259108177e-02
 2.808750939305796127e-02
 2.843300742986204499e-02
 2.873251512917878933e-02
 2.899176064707550265e-02
 2.921586167218710728e-02
 2.940936257944332458e-02
 2.957627783710216687e-02
 2.972013829020309084e-02
 2.984403788890561612e-02
 2.995067918200387813e-02
 1.174540262590806263e-03
 3.509858235623772478e-03
 5.804526126537121883e-03
 8.033507372440204172e-03
 1.017465456001862868e-02
 1.220948667377179907e-02
 1.412365858081642521e-02
 1.590711750280029632e-02
 1.755397753710555980e-02
 1.906216886804107044e-02
 2.043293103079388967e-02
 2.167022039043532342e-02
 2.278009383341126140e-02
 2.377011727520939727e-02
 2.464883244698510417e-02
 2.542530115496972887e-02
 2.610873437865396732e-02
 2.670820481779090372e-02
 2.723243576491702830e-02
 2.768965602259101239e-02
 2.808750939305793004e-02
 2.843300742986210744e-02
 2.873251512917903913e-02
 2.899176064707520081e-02
 2.921586167218715238e-02
 2.940936257944307824e-02
 2.957627783710204544e-02
 2.972013829020337880e-02
 2.984403788890536285e-02
 2.995067918200408630e-02
 1.174540262590806263e-03
 3.509858235623772912e-03
 5.804526126537120148e-03
 8.033507372440207642e-03
 1.017465456001862868e-02
 1.220948667377179213e-02
 1.412365858081644603e-02
 1.590711750280029632e-02
 1.755397753710550776e-02
 1.906216886804103228e-02
 2.043293103079392783e-02
 2.167022039043538240e-02
 2.278009383341130650e-02
 2.377011727520939727e-02
 2.464883244698526030e-02
 2.542530115496962825e-02
 2.610873437865436283e-02
 2.670820481779075453e-02
 2.723243576491677156e-02
 2.768965602259118239e-02
 2.808750939305830821e-02
 2.843300742986153151e-02
 2.873251512917856729e-02
 2.899176064707539857e-02
 2.921586167218781852e-02
 2.940936257944262028e-02
 2.957627783710215300e-02
 2.972013829020338921e-02
 2.984403788890376691e-02
 2.995067918200509591e-02
 1.174540262590806480e-03
 3.509858235623772478e-03
 5.804526126537120148e-03
 8.033507372440205907e-03
 1.017465456001863215e-02
 1.220948667377178692e-02
 1.412365858081643909e-02
 1.590711750280031367e-02
 1.755397753710556327e-02
 1.906216886804102534e-02
 2.043293103079394865e-02
 2.167022039043542056e-02
 2.278009383341131344e-02
 2.377011727520943543e-02
 2.464883244698511458e-02
 2.542530115496980866e-02
 2.610873437865398120e-02
 2.670820481779092453e-02
 2.723243576491694851e-02
 2.768965602259118239e-02
 2.808750939305777392e-02
 2.843300742986168417e-02
 2.873251512917811626e-02
 2.899176064707605083e-02
 2.921586167218643074e-02
 2.940936257944273477e-02
 2.957627783710337424e-02
 2.972013829020385411e-02
 2.984403788890484244e-02
 2.995067918200513407e-02
 1.174540262590806697e-03
 3.509858235623772478e-03
 5.804526126537122750e-03
 8.033507372440211111e-03
 1.017465456001863389e-02
 1.220948667377179213e-02
 1.412365858081639919e-02
 1.590711750280029979e-02
 1.755397753710561531e-02
 1.906216886804102187e-02
 2.043293103079391049e-02
 2.167022039043533729e-02
 2.278009383341130997e-02
 2.377011727520937298e-02
 2.464883244698522907e-02