<VTKFile type="UnstructuredGrid" byte_order="BigEndian">
<UnstructuredGrid><Piece NumberOfPoints="504" NumberOfCells="375">
<Points>
 <DataArray type="Float32" NumberOfComponents="3" format="ascii">
 2.999999932944774628e-02 0.000000000000000000e+00 0.000000000000000000e+00
 3.006666712462902069e-02 0.000000000000000000e+00 0.000000000000000000e+00
 3.013333305716514587e-02 0.000000000000000000e+00 0.000000000000000000e+00
 3.020000085234642029e-02 0.000000000000000000e+00 0.000000000000000000e+00
 2.999999932944774628e-02 8.623100256954785436e-06 0.000000000000000000e+00
 3.006666712462902069e-02 8.623100256954785436e-06 0.000000000000000000e+00
 3.013333305716514587e-02 8.623100256954785436e-06 0.000000000000000000e+00
 3.020000085234642029e-02 8.623100256954785436e-06 0.000000000000000000e+00
 2.999999932944774628e-02 1.761597741278819740e-05 0.000000000000000000e+00
 3.006666712462902069e-02 1.761597741278819740e-05 0.000000000000000000e+00
 3.013333305716514587e-02 1.761597741278819740e-05 0.000000000000000000e+00
 3.020000085234642029e-02 1.761597741278819740e-05 0.000000000000000000e+00
 2.999999932944774628e-02 2.699431206565350294e-05 0.000000000000000000e+00
 3.006666712462902069e-02 2.699431206565350294e-05 0.000000000000000000e+00
 3.013333305716514587e-02 2.699431206565350294e-05 0.000000000000000000e+00
 3.020000085234642029e-02 2.699431206565350294e-05 0.000000000000000000e+00
 2.999999932944774628e-02 3.677442873595282435e-05 0.000000000000000000e+00
 3.006666712462902069e-02 3.677442873595282435e-05 0.000000000000000000e+00
 3.013333305716514587e-02 3.677442873595282435e-05 0.000000000000000000e+00
 3.020000085234642029e-02 3.677442873595282435e-05 0.000000000000000000e+00
 2.999999932944774628e-02 4.697333861258812249e-05 0.000000000000000000e+00
 3.006666712462902069e-02 4.697333861258812249e-05 0.000000000000000000e+00
 3.013333305716514587e-02 4.697333861258812249e-05 0.000000000000000000e+00
 3.020000085234642029e-02 4.697333861258812249e-05 0.000000000000000000e+00
 2.999999932944774628e-02 5.760874046245589852e-05 0.000000000000000000e+00
 3.006666712462902069e-02 5.760874046245589852e-05 0.000000000000000000e+00
 3.013333305716514587e-02 5.760874046245589852e-05 0.000000000000000000e+00
 3.020000085234642029e-02 5.760874046245589852e-05 0.000000000000000000e+00
 2.999999932944774628e-02 6.869906792417168617e-05 0.000000000000000000e+00
 3.006666712462902069e-02 6.869906792417168617e-05 0.000000000000000000e+00
 3.013333305716514587e-02 6.869906792417168617e-05 0.000000000000000000e+00
 3.020000085234642029e-02 6.869906792417168617e-05 0.000000000000000000e+00
 2.999999932944774628e-02 8.026351133594289422e-05 0.000000000000000000e+00
 3.006666712462902069e-02 8.026351133594289422e-05 0.000000000000000000e+00
 3.013333305716514587e-02 8.026351133594289422e-05 0.000000000000000000e+00
 3.020000085234642029e-02 8.026351133594289422e-05 0.000000000000000000e+00
 2.999999932944774628e-02 9.232205047737807035e-05 0.000000000000000000e+00
 3.006666712462902069e-02 9.232205047737807035e-05 0.000000000000000000e+00
 3.013333305716514587e-02 9.232205047737807035e-05 0.000000000000000000e+00
 3.020000085234642029e-02 9.232205047737807035e-05 0.000000000000000000e+00
 2.999999932944774628e-02 1.048954727593809366e-04 0.000000000000000000e+00
 3.006666712462902069e-02 1.048954727593809366e-04 0.000000000000000000e+00
 3.013333305716514587e-02 1.048954727593809366e-04 0.000000000000000000e+00
 3.020000085234642029e-02 1.048954727593809366e-04 0.000000000000000000e+00
 2.999999932944774628e-02 1.180054168798960745e-04 0.000000000000000000e+00
 3.006666712462902069e-02 1.180054168798960745e-04 0.000000000000000000e+00
 3.013333305716514587e-02 1.180054168798960745e-04 0.000000000000000000e+00
 3.020000085234642029e-02 1.180054168798960745e-04 0.000000000000000000e+00
 2.999999932944774628e-02 1.316744019277393818e-04 0.000000000000000000e+00
 3.006666712462902069e-02 1.316744019277393818e-04 0.000000000000000000e+00
 3.013333305716514587e-02 1.316744019277393818e-04 0.000000000000000000e+00
 3.020000085234642029e-02 1.316744019277393818e-04 0.000000000000000000e+00
 2.999999932944774628e-02 1.459258637623861432e-04 0.000000000000000000e+00
 3.006666712462902069e-02 1.459258637623861432e-04 0.000000000000000000e+00
 3.013333305716514587e-02 1.459258637623861432e-04 0.000000000000000000e+00
 3.020000085234642029e-02 1.459258637623861432e-04 0.000000000000000000e+00
 2.999999932944774628e-02 1.607841550139710307e-04 0.000000000000000000e+00
 3.006666712462902069e-02 1.607841550139710307e-04 0.000000000000000000e+00
 3.013333305716514587e-02 1.607841550139710307e-04 0.000000000000000000e+00
 3.020000085234642029e-02 1.607841550139710307e-04 0.000000000000000000e+00
 2.999999932944774628e-02 1.762746687745675445e-04 0.000000000000000000e+00
 3.006666712462902069e-02 1.762746687745675445e-04 0.000000000000000000e+00
 3.013333305716514587e-02 1.762746687745675445e-04 0.000000000000000000e+00
 3.020000085234642029e-02 1.762746687745675445e-04 0.000000000000000000e+00
 2.999999932944774628e-02 1.924237440107390285e-04 0.000000000000000000e+00
 3.006666712462902069e-02 1.924237440107390285e-04 0.000000000000000000e+00
 3.013333305716514587e-02 1.924237440107390285e-04 0.000000000000000000e+00
 3.020000085234642029e-02 1.924237440107390285e-04 0.000000000000000000e+00
 2.999999932944774628e-02 2.092588256346061826e-04 0.000000000000000000e+00
 3.006666712462902069e-02 2.092588256346061826e-04 0.000000000000000000e+00
 3.013333305716514587e-02 2.092588256346061826e-04 0.000000000000000000e+00
 3.020000085234642029e-02 2.092588256346061826e-04 0.000000000000000000e+00
 2.999999932944774628e-02 2.268084354000166059e-04 0.000000000000000000e+00
 3.006666712462902069e-02 2.268084354000166059e-04 0.000000000000000000e+00
 3.013333305716514587e-02 2.268084354000166059e-04 0.000000000000000000e+00
 3.020000085234642029e-02 2.268084354000166059e-04 0.000000000000000000e+00
 2.999999932944774628e-02 2.451022155582904816e-04 0.000000000000000000e+00
 3.006666712462902069e-02 2.451022155582904816e-04 0.000000000000000000e+00
 3.013333305716514587e-02 2.451022155582904816e-04 0.000000000000000000e+00
 3.020000085234642029e-02 2.451022155582904816e-04 0.000000000000000000e+00
 2.999999932944774628e-02 2.641710161697119474e-04 0.000000000000000000e+00
 3.006666712462902069e-02 2.641710161697119474e-04 0.000000000000000000e+00
 3.013333305716514587e-02 2.641710161697119474e-04 0.000000000000000000e+00
 3.020000085234642029e-02 2.641710161697119474e-04 0.000000000000000000e+00
 2.999999932944774628e-02 2.840468368958681822e-04 0.000000000000000000e+00
 3.006666712462902069e-02 2.840468368958681822e-04 0.000000000000000000e+00
 3.013333305716514587e-02 2.840468368958681822e-04 0.000000000000000000e+00
 3.020000085234642029e-02 2.840468368958681822e-04 0.000000000000000000e+00
 2.999999932944774628e-02 3.047629725188016891e-04 0.000000000000000000e+00
 3.006666712462902069e-02 3.047629725188016891e-04 0.000000000000000000e+00
 3.013333305716514587e-02 3.047629725188016891e-04 0.000000000000000000e+00
 3.020000085234642029e-02 3.047629725188016891e-04 0.000000000000000000e+00
 2.999999932944774628e-02 3.263540565967559814e-04 0.000000000000000000e+00
 3.006666712462902069e-02 3.263540565967559814e-04 0.000000000000000000e+00
 3.013333305716514587e-02 3.263540565967559814e-04 0.000000000000000000e+00
 3.020000085234642029e-02 3.263540565967559814e-04 0.000000000000000000e+00
 2.999999932944774628e-02 3.488559450488537550e-04 0.000000000000000000e+00
 3.006666712462902069e-02 3.488559450488537550e-04 0.000000000000000000e+00
 3.013333305716514587e-02 3.488559450488537550e-04 0.000000000000000000e+00
 3.020000085234642029e-02 3.488559450488537550e-04 0.000000000000000000e+00
 2.999999932944774628e-02 3.723060362972319126e-04 0.000000000000000000e+00
 3.006666712462902069e-02 3.723060362972319126e-04 0.000000000000000000e+00
 3.013333305716514587e-02 3.723060362972319126e-04 0.000000000000000000e+00
 3.020000085234642029e-02 3.723060362972319126e-04 0.000000000000000000e+00
 2.999999932944774628e-02 3.967430093325674534e-04 0.000000000000000000e+00
 3.006666712462902069e-02 3.967430093325674534e-04 0.000000000000000000e+00
 3.013333305716514587e-02 3.967430093325674534e-04 0.000000000000000000e+00
 3.020000085234642029e-02 3.967430093325674534e-04 0.000000000000000000e+00
 2.999999932944774628e-02 4.222071147523820400e-04 0.000000000000000000e+00
 3.006666712462902069e-02 4.222071147523820400e-04 0.000000000000000000e+00
 3.013333305716514587e-02 4.222071147523820400e-04 0.000000000000000000e+00
 3.020000085234642029e-02 4.222071147523820400e-04 0.000000000000000000e+00
 2.999999932944774628e-02 4.487401165533810854e-04 0.000000000000000000e+00
 3.006666712462902069e-02 4.487401165533810854e-04 0.000000000000000000e+00
 3.013333305716514587e-02 4.487401165533810854e-04 0.000000000000000000e+00
 3.020000085234642029e-02 4.487401165533810854e-04 0.000000000000000000e+00
 2.999999932944774628e-02 4.763853503391146660e-04 0.000000000000000000e+00
 3.006666712462902069e-02 4.763853503391146660e-04 0.000000000000000000e+00
 3.013333305716514587e-02 4.763853503391146660e-04 0.000000000000000000e+00
 3.020000085234642029e-02 4.763853503391146660e-04 0.000000000000000000e+00
 2.999999932944774628e-02 5.051877233199775219e-04 0.000000000000000000e+00
 3.006666712462902069e-02 5.051877233199775219e-04 0.000000000000000000e+00
 3.013333305716514587e-02 5.051877233199775219e-04 0.000000000000000000e+00
 3.020000085234642029e-02 5.051877233199775219e-04 0.000000000000000000e+00
 2.999999932944774628e-02 5.351938889361917973e-04 0.000000000000000000e+00
 3.006666712462902069e-02 5.351938889361917973e-04 0.000000000000000000e+00
 3.013333305716514587e-02 5.351938889361917973e-04 0.000000000000000000e+00
 3.020000085234642029e-02 5.351938889361917973e-04 0.000000000000000000e+00
[...]
<CellData>
 <DataArray Name="pos.x" type="Float32" NumberOfComponents="1" format="ascii">
 3.003333333333333202e-02
 3.010000000000000175e-02
 3.016666666666666455e-02
 3.003333333333332855e-02
 3.009999999999999828e-02
 3.016666666666666455e-02
 3.003333333333332855e-02
 3.009999999999999482e-02
 3.016666666666666455e-02
 3.003333333333333202e-02
 3.009999999999999482e-02
 3.016666666666666455e-02
 3.003333333333332855e-02
 3.009999999999999482e-02
 3.016666666666666455e-02
 3.003333333333332855e-02
 3.009999999999999482e-02
 3.016666666666666455e-02
 3.003333333333333202e-02
 3.009999999999999828e-02
 3.016666666666666455e-02
 3.003333333333333202e-02
 3.009999999999999828e-02
 3.016666666666666455e-02
 3.003333333333332855e-02
 3.009999999999999482e-02
 3.016666666666666455e-02
 3.003333333333333202e-02
 3.009999999999999828e-02
 3.016666666666666455e-02
 3.003333333333332855e-02
 3.009999999999999482e-02
 3.016666666666666455e-02
 3.003333333333332855e-02
 3.009999999999999482e-02
 3.016666666666666455e-02
 3.003333333333333202e-02
 3.010000000000000175e-02
 3.016666666666666455e-02
 3.003333333333333549e-02
 3.010000000000000175e-02
 3.016666666666666455e-02
 3.003333333333333202e-02
 3.009999999999999482e-02
 3.016666666666666455e-02
 3.003333333333333202e-02
 3.009999999999999482e-02
 3.016666666666666455e-02
 3.003333333333332855e-02
 3.009999999999999482e-02
 3.016666666666666455e-02
 3.003333333333332855e-02
 3.009999999999999482e-02
 3.016666666666666455e-02
 3.003333333333332855e-02
 3.009999999999999828e-02
 3.016666666666666455e-02
 3.003333333333332855e-02
 3.009999999999999482e-02
 3.016666666666666455e-02
 3.003333333333333202e-02
 3.009999999999999482e-02
 3.016666666666666455e-02
 3.003333333333333202e-02
 3.009999999999999482e-02
 3.016666666666666455e-02
 3.003333333333333202e-02
 3.010000000000000175e-02
 3.016666666666666455e-02
 3.003333333333333549e-02
 3.010000000000000175e-02
 3.016666666666666455e-02
 3.003333333333333202e-02
 3.009999999999999482e-02
 3.016666666666666455e-02
 3.003333333333332855e-02
 3.009999999999999482e-02
 3.016666666666666455e-02
 3.003333333333332855e-02
 3.009999999999999482e-02
 3.016666666666666455e-02
 3.003333333333333202e-02
 3.010000000000000175e-02
 3.016666666666666455e-02
 3.003333333333333202e-02
 3.009999999999999482e-02
 3.016666666666666455e-02
 3.003333333333332855e-02
 3.009999999999999828e-02
 3.016666666666666455e-02
 3.003333333333332855e-02
 3.009999999999999482e-02
 3.016666666666666455e-02
 3.003333333333332855e-02
 3.009999999999999482e-02
 3.016666666666666455e-02
 3.003333333333333202e-02
 3.009999999999999482e-02
 3.016666666666666455e-02
 3.003333333333333202e-02
 3.009999999999999482e-02
 3.016666666666666455e-02
 3.003333333333332855e-02
 3.009999999999999482e-02
 3.016666666666666455e-02
 3.003333333333332855e-02
 3.009999999999999482e-02
 3.016666666666666455e-02
 3.003333333333332855e-02
 3.009999999999999482e-02
 3.016666666666666455e-02
 3.003333333333332855e-02
 3.009999999999999482e-02
 3.016666666666666455e-02
 3.003333333333333202e-02
 3.010000000000000175e-02
 3.016666666666666455e-02
 3.003333333333332855e-02
 3.009999999999999482e-02
 3.016666666666666455e-02
 3.003333333333332855e-02
 3.009999999999999482e-02
 3.016666666666666455e-02
 3.003333333333332855e-02
 3.009999999999999482e-02
 3.016666666666666455e-02
 3.003333333333332855e-02
 3.009999999999999482e-02
 3.016666666666666455e-02
 3.003333333333333202e-02
 3.010000000000000175e-02
 3.016666666666666455e-02
 3.003333333333333202e-02
 3.010000000000000175e-02
 3.016666666666666455e-02
 3.003333333333333202e-02
 3.009999999999999482e-02
 3.016666666666666455e-02
 3.003333333333333202e-02
 3.009999999999999482e-02
 3.016666666666666455e-02
 3.003333333333333202e-02
 3.009999999999999482e-02
 3.016666666666666455e-02
 3.003333333333333202e-02
 3.009999999999999482e-02
 3.016666666666666455e-02
 3.003333333333333202e-02
 3.009999999999999482e-02
 3.016666666666666455e-02
 3.003333333333333202e-02
 3.009999999999999482e-02
 3.016666666666666455e-02
 3.003333333333333202e-02
 3.009999999999999482e-02
 3.016666666666666455e-02
 3.003333333333333202e-02
 3.009999999999999482e-02
 3.016666666666666455e-02
 3.003333333333333202e-02
 3.009999999999999828e-02
 3.016666666666666455e-02
 3.003333333333333202e-02
 3.009999999999999828e-02
 3.016666666666666455e-02
 3.003333333333333202e-02
 3.009999999999999828e-02
 3.016666666666666455e-02
 3.003333333333332855e-02
 3.009999999999999482e-02
 3.016666666666666455e-02
 3.003333333333333202e-02
 3.009999999999999828e-02
 3.016666666666666455e-02
 3.003333333333333549e-02
 3.010000000000000175e-02
 3.016666666666666455e-02
 3.003333333333332855e-02
 3.009999999999999482e-02
 3.016666666666666455e-02
 3.003333333333332855e-02
 3.009999999999999482e-02
 3.016666666666666455e-02
 3.003333333333332855e-02
 3.009999999999999482e-02
 3.016666666666666455e-02
 3.003333333333333202e-02
 3.009999999999999482e-02
 3.016666666666666455e-02
 3.003333333333333202e-02
 3.010000000000000175e-02
 3.016666666666666455e-02
 3.003333333333333202e-02
 3.009999999999999828e-02
 3.016666666666666455e-02
 3.003333333333332855e-02
 3.009999999999999482e-02
 3.016666666666666455e-02
 3.003333333333333202e-02
 3.009999999999999482e-02
 3.016666666666666455e-02
 3.003333333333332855e-02
 3.009999999999999482e-02
 3.016666666666666455e-02
 3.003333333333332855e-02
 3.009999999999999482e-02
 3.016666666666666455e-02
 3.003333333333332855e-02
 3.009999999999999482e-02
 3.016666666666666455e-02
 3.003333333333332855e-02
 3.009999999999999482e-02
 3.016666666666666455e-02
 3.003333333333333202e-02
 3.009999999999999482e-02
 3.016666666666666455e-02
 3.003333333333332855e-02
 3.009999999999999482e-02
 3.016666666666666455e-02
 3.003333333333333202e-02
 3.009999999999999482e-02
 3.016666666666666455e-02
 3.003333333333332855e-02
 3.009999999999999482e-02
 3.016666666666666455e-02
 3.003333333333332855e-02
 3.009999999999999482e-02
 3.016666666666666455e-02
 3.003333333333332855e-02
 3.009999999999999482e-02
 3.016666666666666455e-02
 3.003333333333333202e-02
 3.009999999999999828e-02
 3.016666666666666455e-02
 3.003333333333333202e-02
 3.009999999999999828e-02
 3.016666666666666455e-02
 3.003333333333332855e-02
 3.009999999999999482e-02
 3.016666666666666455e-02
 3.003333333333333202e-02
 3.010000000000000175e-02
 3.016666666666666455e-02
 3.003333333333333202e-02
 3.009999999999999828e-02
 3.016666666666666455e-02
 3.003333333333332855e-02
 3.009999999999999482e-02
 3.016666666666666455e-02
 3.003333333333333202e-02
 3.009999999999999482e-02
 3.016666666666666455e-02
 3.003333333333333202e-02
 3.009999999999999482e-02
 3.016666666666666455e-02
 3.003333333333332855e-02
 3.009999999999999482e-02
 3.016666666666666455e-02
 3.003333333333332855e-02
 3.009999999999999482e-02
 3.016666666666666455e-02
 3.003333333333332855e-02
 3.009999999999999482e-02
 3.016666666666666455e-02
 3.003333333333332855e-02
 3.009999999999999482e-02
 3.016666666666666455e-02
 3.003333333333332855e-02
 3.009999999999999482e-02
 3.016666666666666455e-02
 3.003333333333333202e-02
 3.009999999999999482e-02
 3.016666666666666455e-02
 3.003333333333332855e-02
 3.009999999999999482e-02
 3.016666666666666455e-02
 3.003333333333332855e-02
 3.009999999999999482e-02
 3.016666666666666455e-02
 3.003333333333333202e-02
 3.009999999999999482e-02
 3.016666666666666455e-02
 3.003333333333332855e-02
 3.009999999999999482e-02
 3.016666666666666455e-02
 3.003333333333332855e-02
 3.009999999999999482e-02
 3.016666666666666455e-02
 3.003333333333333202e-02
 3.009999999999999482e-02
 3.016666666666666455e-02
 3.003333333333332855e-02
 3.009999999999999482e-02
 3.016666666666666455e-02
 3.003333333333332855e-02
 3.009999999999999482e-02
 3.016666666666666455e-02
 3.003333333333333202e-02
 3.009999999999999482e-02
 3.016666666666666455e-02
 3.003333333333332855e-02
 3.009999999999999482e-02
 3.016666666666666455e-02
 3.003333333333332855e-02
 3.009999999999999482e-02
 3.016666666666666455e-02
 3.003333333333332855e-02
 3.009999999999999482e-02
 3.016666666666666455e-02
 3.003333333333332855e-02
 3.009999999999999482e-02
 3.016666666666666455e-02
 3.003333333333332855e-02
 3.009999999999999482e-02
 3.016666666666666455e-02
 3.003333333333332855e-02
 3.009999999999999482e-02
 3.016666666666666455e-02
 3.003333333333333202e-02
 3.009999999999999482e-02
 3.016666666666666455e-02
 3.003333333333332855e-02
 3.009999999999999482e-02
 3.016666666666666455e-02
 3.003333333333333202e-02
 3.009999999999999482e-02
 3.016666666666666455e-02
 3.003333333333333202e-02
 3.009999999999999482e-02
 3.016666666666666455e-02
 3.003333333333333202e-02
 3.009999999999999482e-02
 3.016666666666666455e-02
 3.003333333333332855e-02
 3.009999999999999482e-02
 3.016666666666666455e-02
 3.003333333333332855e-02
 3.009999999999999482e-02
 3.016666666666666455e-02
 3.003333333333333202e-02
 3.009999999999999482e-02
 3.016666666666666455e-02
 3.003333333333332855e-02
 3.009999999999999482e-02
 3.016666666666666455e-02
 3.003333333333333202e-02
 3.009999999999999482e-02
 3.016666666666666455e-02
 3.003333333333333202e-02
 3.009999999999999482e-02
 3.016666666666666455e-02
 3.003333333333332855e-02
 3.009999999999999482e-02
 3.016666666666666455e-02
 3.003333333333333202e-02
 3.010000000000000175e-02
 3.016666666666666455e-02
 3.003333333333333202e-02
 3.009999999999999482e-02
 3.016666666666666455e-02
 3.003333333333332855e-02
 3.009999999999999482e-02
 3.016666666666666455e-02
 3.003333333333333202e-02
 3.009999999999999482e-02
 3.016666666666666455e-02
 3.003333333333333202e-02
 3.009999999999999482e-02
 3.016666666666666455e-02
 3.003333333333333202e-02
 3.009999999999999482e-02
 3.016666666666666455e-02
 3.003333333333333202e-02
 3.009999999999999482e-02
 3.016666666666666455e-02
 </DataArray>
 <DataArray Name="pos.y" type="Float32" NumberOfComponents="1" format="ascii">
 4.311550325558633951e-06
 4.311550325558633951e-06
 4.311550325558633104e-06
 1.311953932910503819e-05
 1.311953932910503650e-05
 1.311953932910503311e-05
 2.230514484406365426e-05
 2.230514484406365087e-05
 2.230514484406364748e-05
 3.188437111788178859e-05
 3.188437111788178859e-05
 3.188437111788178181e-05
 4.187388442165485979e-05
 4.187388442165485979e-05
 4.187388442165485301e-05
 5.229103899994314508e-05
 5.229103899994314508e-05
 5.229103899994314508e-05
 6.315390390987385416e-05
 6.315390390987385416e-05
 6.315390390987385416e-05
 7.448129076821131435e-05
 7.448129076821131435e-05
 7.448129076821130080e-05
 8.629278242425209022e-05
 8.629278242425209022e-05
 8.629278242425209022e-05
 9.860876257546058400e-05
 9.860876257546057045e-05
 9.860876257546058400e-05
 1.114504463415622059e-04
 1.114504463415622059e-04
 1.114504463415622059e-04
 1.248399118114496020e-04
 1.248399118114496020e-04
 1.248399118114496020e-04
 1.388001325757604412e-04
 1.388001325757604412e-04
 1.388001325757604141e-04
 1.533550112560866504e-04
 1.533550112560866504e-04
 1.533550112560866504e-04
 1.685294140397652809e-04
 1.685294140397653080e-04
 1.685294140397652809e-04
 1.843492062268870413e-04
 1.843492062268870413e-04
 1.843492062268870142e-04
 2.008412887934529615e-04
 2.008412887934529615e-04
 2.008412887934529615e-04
 2.180336359716950295e-04
 2.180336359716950295e-04
 2.180336359716950024e-04
 2.359553338452303095e-04
 2.359553338452303095e-04
 2.359553338452302553e-04
 2.546366199529937055e-04
 2.546366199529937055e-04
 2.546366199529937055e-04
 2.741089238917838360e-04
 2.741089238917838360e-04
 2.741089238917837276e-04
 2.944049089026724267e-04
 2.944049089026724267e-04
 2.944049089026723183e-04
 3.155585144214479473e-04
 3.155585144214479473e-04
 3.155585144214478931e-04
 3.376049995676932937e-04
 3.376049995676932937e-04
 3.376049995676932937e-04
 3.605809875409593740e-04
 3.605809875409593740e-04
 3.605809875409593740e-04
 3.845245108857331525e-04
 3.845245108857331525e-04
 3.845245108857331525e-04
 4.094750575795069909e-04
 4.094750575795070451e-04
 4.094750575795069909e-04
 4.354736178902374796e-04
 4.354736178902374254e-04
 4.354736178902374254e-04
 4.625627319406288955e-04
 4.625627319406289497e-04
 4.625627319406288955e-04
 4.907865379071185870e-04
 4.907865379071185870e-04
 4.907865379071185870e-04
 5.201908207710726536e-04
 5.201908207710726536e-04
 5.201908207710726536e-04
 5.508230615284138553e-04
 5.508230615284138553e-04
 5.508230615284137469e-04
 5.827324867517303698e-04
 5.827324867517303698e-04
 5.827324867517302614e-04
 6.159701183857558150e-04
 6.159701183857558150e-04
 6.159701183857558150e-04
 6.505888236429792446e-04
 6.505888236429792446e-04
 6.505888236429791362e-04
 6.866433648508863926e-04
 6.866433648508862841e-04
 6.866433648508862841e-04
 7.241904490860129415e-04
 7.241904490860129415e-04
 7.241904490860129415e-04
 7.632887774125208472e-04
 7.632887774125208472e-04
 7.632887774125208472e-04
 8.039990935243025716e-04
 8.039990935243025716e-04
 8.039990935243025716e-04
 8.463842315697325119e-04
 8.463842315697325119e-04
 8.463842315697325119e-04
 8.905091629170037212e-04
 8.905091629170037212e-04
 8.905091629170036127e-04
 9.364410415955205270e-04
 9.364410415955203102e-04
 9.364410415955203102e-04
 9.842492481250567169e-04
 9.842492481250565001e-04
 9.842492481250565001e-04
 1.034005431419294987e-03
 1.034005431419294987e-03
 1.034005431419294987e-03
 1.085783548423959778e-03
 1.085783548423959778e-03
 1.085783548423959778e-03
 1.139659901122039081e-03
 1.139659901122038865e-03
 1.139659901122038865e-03
 1.195713170509593798e-03
 1.195713170509593581e-03
 1.195713170509593581e-03
 1.254024447115447381e-03
 1.254024447115447381e-03
 1.254024447115447381e-03
 1.314677257606636967e-03
 1.314677257606636967e-03
 1.314677257606636967e-03
 1.377757586989015841e-03
 1.377757586989015841e-03
 1.377757586989015841e-03
 1.443353895878951836e-03
 1.443353895878951836e-03
 1.443353895878951836e-03
 1.511557132287749726e-03
 1.511557132287749943e-03
 1.511557132287749943e-03
 1.582460737325424183e-03
 1.582460737325424183e-03
 1.582460737325424183e-03
 1.656160644195021816e-03
 1.656160644195021816e-03
 1.656160644195021816e-03
 1.732755269812954416e-03
 1.732755269812954416e-03
 1.732755269812954416e-03
 1.812345498355128143e-03
 1.812345498355128143e-03
 1.812345498355128143e-03
 1.895034655993379710e-03
 1.895034655993379710e-03
 1.895034655993379710e-03
 1.980928476052099506e-03
 1.980928476052099506e-03
 1.980928476052099506e-03
 2.070135053781470454e-03
 2.070135053781470454e-03
 2.070135053781470020e-03
 2.162764789911944194e-03
 2.162764789911944194e-03
 2.162764789911944194e-03
 2.258930322124868585e-03
 2.258930322124868585e-03
 2.258930322124868151e-03
 2.358746443547207750e-03
 2.358746443547207750e-03
 2.358746443547207316e-03
 2.462330007354762186e-03
 2.462330007354762186e-03
 2.462330007354761752e-03
 2.569799816548786267e-03
 2.569799816548786267e-03
 2.569799816548785833e-03
 2.681276497956347829e-03
 2.681276497956347829e-03
 2.681276497956347395e-03
 2.796882359495874142e-03
 2.796882359495874142e-03
 2.796882359495873709e-03
 2.916741229747098988e-03
 2.916741229747098554e-03
 2.916741229747098554e-03
 3.040978278869993674e-03
 3.040978278869993674e-03
 3.040978278869993674e-03
 3.169719819931200722e-03
 3.169719819931201155e-03
 3.169719819931200722e-03
 3.303093089720151015e-03
 3.303093089720151015e-03
 3.303093089720150581e-03
 3.441226008171513299e-03
 3.441226008171513299e-03
 3.441226008171512866e-03
 3.584246915556936388e-03
 3.584246915556936388e-03
 3.584246915556935954e-03
 3.732284286668578407e-03
 3.732284286668578407e-03
 3.732284286668578407e-03
 3.885466421290628431e-03
 3.885466421290628431e-03
 3.885466421290627997e-03
 4.043921110344074824e-03
 4.043921110344074824e-03
 4.043921110344073956e-03
 4.207775277195707764e-03
 4.207775277195707764e-03
 4.207775277195706029e-03
 4.377154593745389080e-03
 4.377154593745389080e-03
 4.377154593745388213e-03
 4.552183071047323851e-03
 4.552183071047323851e-03
 4.552183071047322116e-03
 4.732982624381977706e-03
 4.732982624381977706e-03
 4.732982624381976838e-03
 4.919672612876188969e-03
 4.919672612876188969e-03
 4.919672612876188102e-03
 5.112369353970376736e-03
 5.112369353970376736e-03
 5.112369353970376736e-03
 5.311185613253754587e-03
 5.311185613253754587e-03
 5.311185613253753719e-03
 5.516230070431030370e-03
 5.516230070431031238e-03
 5.516230070431029503e-03
 5.727606762446969813e-03
 5.727606762446969813e-03
 5.727606762446968078e-03
 5.945414505077514095e-03
 5.945414505077514095e-03
 5.945414505077514095e-03
 6.169746294596909625e-03
 6.169746294596909625e-03
 6.169746294596909625e-03
 6.400688691447704512e-03
 6.400688691447705379e-03
 6.400688691447704512e-03
 6.638321188172733450e-03
 6.638321188172733450e-03
 6.638321188172733450e-03
 6.882715564212423497e-03
 6.882715564212423497e-03
 6.882715564212423497e-03
 7.133935230523890877e-03
 7.133935230523890877e-03
 7.133935230523890877e-03
 7.392034567336880184e-03
 7.392034567336881051e-03
 7.392034567336880184e-03
 7.657058258720914057e-03
 7.657058258720914924e-03
 7.657058258720913189e-03
 7.929040627993599877e-03
 7.929040627993599877e-03
 7.929040627993598142e-03
 8.208004978346389660e-03
 8.208004978346391395e-03
 8.208004978346387925e-03
 8.493962943395241133e-03
 8.493962943395241133e-03
 8.493962943395241133e-03
 8.786913852673439163e-03
 8.786913852673439163e-03
 8.786913852673439163e-03
 9.086844117365402290e-03
 9.086844117365402290e-03
 9.086844117365400555e-03
 9.393726641826751281e-03
 9.393726641826751281e-03
 9.393726641826749546e-03
 9.707520266640139520e-03
 9.707520266640139520e-03
 9.707520266640139520e-03
 1.002816924911090028e-02
 1.002816924911089855e-02
 1.002816924911089855e-02
 1.035560278720467318e-02
 1.035560278720467145e-02
 1.035560278720467145e-02
 1.068973459296394118e-02
 1.068973459296393945e-02
 1.068973459296393771e-02
 1.103046252140519982e-02
 1.103046252140519982e-02
 1.103046252140519982e-02
 1.137766826078820404e-02
 1.137766826078820404e-02
 1.137766826078820404e-02
 1.173121708995797548e-02
 1.173121708995797374e-02
 1.173121708995797374e-02
 1.209095770818564321e-02
 1.209095770818564321e-02
 1.209095770818564147e-02
 1.245672214257299154e-02
 1.245672214257299154e-02
 1.245672214257298981e-02
 1.282832573763673274e-02
 1.282832573763673448e-02
 1.282832573763673101e-02
 1.320556723115264355e-02
 1.320556723115264008e-02
 1.320556723115264008e-02
 1.358822891971859202e-02
 1.358822891971859029e-02
 1.358822891971859029e-02
 1.397607691679372127e-02
 1.397607691679371780e-02
 1.397607691679371780e-02
 1.436886150519382441e-02
 1.436886150519382614e-02
 1.436886150519382441e-02
 1.476631758517863574e-02
 1.476631758517863574e-02
 1.476631758517863401e-02
 1.516816521836437948e-02
 1.516816521836437948e-02
 1.516816521836437948e-02
 1.557411026674622792e-02
 1.557411026674622792e-02
 1.557411026674622619e-02
 1.598384512513281730e-02
 1.598384512513282077e-02
 1.598384512513281383e-02
 1.639704954429325318e-02
 1.639704954429325318e-02
 1.639704954429324971e-02
 1.681339154111126735e-02
 1.681339154111127082e-02
 1.681339154111126735e-02
 1.723252839104769812e-02
 1.723252839104769812e-02
 1.723252839104769465e-02
 1.765410769724780338e-02
 1.765410769724780338e-02
 1.765410769724779991e-02
 1.807776852971106768e-02
 1.807776852971106768e-02
 1.807776852971106421e-02
 1.850314262708416951e-02
 1.850314262708416951e-02
 1.850314262708416604e-02
 1.892985565285887004e-02
 1.892985565285887004e-02
 1.892985565285887004e-02
 1.935752849706997084e-02
 1.935752849706997084e-02
 1.935752849706996737e-02
 1.978577861400742863e-02
 1.978577861400742863e-02
 1.978577861400742516e-02
 </DataArray>
 <DataArray Name="pos.z" type="Float32" NumberOfComponents="1" format="ascii">
 0.000000000000000000e+00
 0.000000000000000000e+00
 0.000000000000000000e+00
 0.000000000000000000e+00
 0.000000000000000000e+00
 0.000000000000000000e+00
 0.000000000000000000e+00
 0.000000000000000000e+00