<VTKFile type="UnstructuredGrid" byte_order="BigEndian">
<UnstructuredGrid><Piece NumberOfPoints="504" NumberOfCells="375">
<Points>
 <DataArray type="Float32" NumberOfComponents="3" format="ascii">
 2.999999932944774628e-02 0.000000000000000000e+00 0.000000000000000000e+00
 3.006666712462902069e-02 0.000000000000000000e+00 0.000000000000000000e+00
 3.013333305716514587e-02 0.000000000000000000e+00 0.000000000000000000e+00
 3.020000085234642029e-02 0.000000000000000000e+00 0.000000000000000000e+00
 2.999999932944774628e-02 8.623100256954785436e-06 0.000000000000000000e+00
 3.006666712462902069e-02 8.623100256954785436e-06 0.000000000000000000e+00
 3.013333305716514587e-02 8.623100256954785436e-06 0.000000000000000000e+00
 3.020000085234642029e-02 8.623100256954785436e-06 0.000000000000000000e+00
 2.999999932944774628e-02 1.761597741278819740e-05 0.000000000000000000e+00
 3.006666712462902069e-02 1.761597741278819740e-05 0.000000000000000000e+00
 3.013333305716514587e-02 1.761597741278819740e-05 0.000000000000000000e+00
 3.020000085234642029e-02 1.761597741278819740e-05 0.000000000000000000e+00
 2.999999932944774628e-02 2.699431206565350294e-05 0.000000000000000000e+00
 3.006666712462902069e-02 2.699431206565350294e-05 0.000000000000000000e+00
 3.013333305716514587e-02 2.699431206565350294e-05 0.000000000000000000e+00
 3.020000085234642029e-02 2.699431206565350294e-05 0.000000000000000000e+00
 2.999999932944774628e-02 3.677442873595282435e-05 0.000000000000000000e+00
 3.006666712462902069e-02 3.677442873595282435e-05 0.000000000000000000e+00
 3.013333305716514587e-02 3.677442873595282435e-05 0.000000000000000000e+00
 3.020000085234642029e-02 3.677442873595282435e-05 0.000000000000000000e+00
 2.999999932944774628e-02 4.697333861258812249e-05 0.000000000000000000e+00
 3.006666712462902069e-02 4.697333861258812249e-05 0.000000000000000000e+00
 3.013333305716514587e-02 4.697333861258812249e-05 0.000000000000000000e+00
 3.020000085234642029e-02 4.697333861258812249e-05 0.000000000000000000e+00
 2.999999932944774628e-02 5.760874046245589852e-05 0.000000000000000000e+00
 3.006666712462902069e-02 5.760874046245589852e-05 0.000000000000000000e+00
 3.013333305716514587e-02 5.760874046245589852e-05 0.000000000000000000e+00
 3.020000085234642029e-02 5.760874046245589852e-05 0.000000000000000000e+00
 2.999999932944774628e-02 6.869906792417168617e-05 0.000000000000000000e+00
 3.006666712462902069e-02 6.869906792417168617e-05 0.000000000000000000e+00
 3.013333305716514587e-02 6.869906792417168617e-05 0.000000000000000000e+00
 3.020000085234642029e-02 6.869906792417168617e-05 0.000000000000000000e+00
 2.999999932944774628e-02 8.026351133594289422e-05 0.000000000000000000e+00
 3.006666712462902069e-02 8.026351133594289422e-05 0.000000000000000000e+00
 3.013333305716514587e-02 8.026351133594289422e-05 0.000000000000000000e+00
 3.020000085234642029e-02 8.026351133594289422e-05 0.000000000000000000e+00
 2.999999932944774628e-02 9.232205047737807035e-05 0.000000000000000000e+00
 3.006666712462902069e-02 9.232205047737807035e-05 0.000000000000000000e+00
 3.013333305716514587e-02 9.232205047737807035e-05 0.000000000000000000e+00
 3.020000085234642029e-02 9.232205047737807035e-05 0.000000000000000000e+00
 2.999999932944774628e-02 1.048954727593809366e-04 0.000000000000000000e+00
 3.006666712462902069e-02 1.048954727593809366e-04 0.000000000000000000e+00
 3.013333305716514587e-02 1.048954727593809366e-04 0.000000000000000000e+00
 3.020000085234642029e-02 1.048954727593809366e-04 0.000000000000000000e+00
 2.999999932944774628e-02 1.180054168798960745e-04 0.000000000000000000e+00
 3.006666712462902069e-02 1.180054168798960745e-04 0.000000000000000000e+00
 3.013333305716514587e-02 1.180054168798960745e-04 0.000000000000000000e+00
 3.020000085234642029e-02 1.180054168798960745e-04 0.000000000000000000e+00
 2.999999932944774628e-02 1.316744019277393818e-04 0.000000000000000000e+00
 3.006666712462902069e-02 1.316744019277393818e-04 0.000000000000000000e+00
 3.013333305716514587e-02 1.316744019277393818e-04 0.000000000000000000e+00
 3.020000085234642029e-02 1.316744019277393818e-04 0.000000000000000000e+00
 2.999999932944774628e-02 1.459258637623861432e-04 0.000000000000000000e+00
 3.006666712462902069e-02 1.459258637623861432e-04 0.000000000000000000e+00
 3.013333305716514587e-02 1.459258637623861432e-04 0.000000000000000000e+00
 3.020000085234642029e-02 1.459258637623861432e-04 0.000000000000000000e+00
 2.999999932944774628e-02 1.607841550139710307e-04 0.000000000000000000e+00
 3.006666712462902069e-02 1.607841550139710307e-04 0.000000000000000000e+00
 3.013333305716514587e-02 1.607841550139710307e-04 0.000000000000000000e+00
 3.020000085234642029e-02 1.607841550139710307e-04 0.000000000000000000e+00
 2.999999932944774628e-02 1.762746687745675445e-04 0.000000000000000000e+00
 3.006666712462902069e-02 1.762746687745675445e-04 0.000000000000000000e+00
 3.013333305716514587e-02 1.762746687745675445e-04 0.000000000000000000e+00
 3.020000085234642029e-02 1.762746687745675445e-04 0.000000000000000000e+00
 2.999999932944774628e-02 1.924237440107390285e-04 0.000000000000000000e+00
 3.006666712462902069e-02 1.924237440107390285e-04 0.000000000000000000e+00
 3.013333305716514587e-02 1.924237440107390285e-04 0.000000000000000000e+00
 3.020000085234642029e-02 1.924237440107390285e-04 0.000000000000000000e+00
 2.999999932944774628e-02 2.092588256346061826e-04 0.000000000000000000e+00
 3.006666712462902069e-02 2.092588256346061826e-04 0.000000000000000000e+00
 3.013333305716514587e-02 2.092588256346061826e-04 0.000000000000000000e+00
 3.020000085234642029e-02 2.092588256346061826e-04 0.000000000000000000e+00
 2.999999932944774628e-02 2.268084354000166059e-04 0.000000000000000000e+00
 3.006666712462902069e-02 2.268084354000166059e-04 0.000000000000000000e+00
 3.013333305716514587e-02 2.268084354000166059e-04 0.000000000000000000e+00
 3.020000085234642029e-02 2.268084354000166059e-04 0.000000000000000000e+00
 2.999999932944774628e-02 2.451022155582904816e-04 0.000000000000000000e+00
 3.006666712462902069e-02 2.451022155582904816e-04 0.000000000000000000e+00
 3.013333305716514587e-02 2.451022155582904816e-04 0.000000000000000000e+00
 3.020000085234642029e-02 2.451022155582904816e-04 0.000000000000000000e+00
 2.999999932944774628e-02 2.641710161697119474e-04 0.000000000000000000e+00
 3.006666712462902069e-02 2.641710161697119474e-04 0.000000000000000000e+00
 3.013333305716514587e-02 2.641710161697119474e-04 0.000000000000000000e+00
 3.020000085234642029e-02 2.641710161697119474e-04 0.000000000000000000e+00
 2.999999932944774628e-02 2.840468368958681822e-04 0.000000000000000000e+00
 3.006666712462902069e-02 2.840468368958681822e-04 0.000000000000000000e+00
 3.013333305716514587e-02 2.840468368958681822e-04 0.000000000000000000e+00
 3.020000085234642029e-02 2.840468368958681822e-04 0.000000000000000000e+00
 2.999999932944774628e-02 3.047629725188016891e-04 0.000000000000000000e+00
 3.006666712462902069e-02 3.047629725188016891e-04 0.000000000000000000e+00
 3.013333305716514587e-02 3.047629725188016891e-04 0.000000000000000000e+00
 3.020000085234642029e-02 3.047629725188016891e-04 0.000000000000000000e+00
 2.999999932944774628e-02 3.263540565967559814e-04 0.000000000000000000e+00
 3.006666712462902069e-02 3.263540565967559814e-04 0.000000000000000000e+00
 3.013333305716514587e-02 3.263540565967559814e-04 0.000000000000000000e+00
 3.020000085234642029e-02 3.263540565967559814e-04 0.000000000000000000e+00
 2.999999932944774628e-02 3.488559450488537550e-04 0.000000000000000000e+00
 3.006666712462902069e-02 3.488559450488537550e-04 0.000000000000000000e+00
 3.013333305716514587e-02 3.488559450488537550e-04 0.000000000000000000e+00
 3.020000085234642029e-02 3.488559450488537550e-04 0.000000000000000000e+00
 2.999999932944774628e-02 3.723060362972319126e-04 0.000000000000000000e+00
 3.006666712462902069e-02 3.723060362972319126e-04 0.000000000000000000e+00
 3.013333305716514587e-02 3.723060362972319126e-04 0.000000000000000000e+00
 3.020000085234642029e-02 3.723060362972319126e-04 0.000000000000000000e+00
 2.999999932944774628e-02 3.967430093325674534e-04 0.000000000000000000e+00
 3.006666712462902069e-02 3.967430093325674534e-04 0.000000000000000000e+00
 3.013333305716514587e-02 3.967430093325674534e-04 0.000000000000000000e+00
 3.020000085234642029e-02 3.967430093325674534e-04 0.000000000000000000e+00
 2.999999932944774628e-02 4.222071147523820400e-04 0.000000000000000000e+00
 3.006666712462902069e-02 4.222071147523820400e-04 0.000000000000000000e+00
 3.013333305716514587e-02 4.222071147523820400e-04 0.000000000000000000e+00
 3.020000085234642029e-02 4.222071147523820400e-04 0.000000000000000000e+00
 2.999999932944774628e-02 4.487401165533810854e-04 0.000000000000000000e+00
 3.006666712462902069e-02 4.487401165533810854e-04 0.000000000000000000e+00
 3.013333305716514587e-02 4.487401165533810854e-04 0.000000000000000000e+00
 3.020000085234642029e-02 4.487401165533810854e-04 0.000000000000000000e+00
 2.999999932944774628e-02 4.763853503391146660e-04 0.000000000000000000e+00
 3.006666712462902069e-02 4.763853503391146660e-04 0.000000000000000000e+00
 3.013333305716514587e-02 4.763853503391146660e-04 0.000000000000000000e+00
 3.020000085234642029e-02 4.763853503391146660e-04 0.000000000000000000e+00
 2.999999932944774628e-02 5.051877233199775219e-04 0.000000000000000000e+00
 3.006666712462902069e-02 5.051877233199775219e-04 0.000000000000000000e+00
 3.013333305716514587e-02 5.051877233199775219e-04 0.000000000000000000e+00
 3.020000085234642029e-02 5.051877233199775219e-04 0.000000000000000000e+00
 2.999999932944774628e-02 5.351938889361917973e-04 0.000000000000000000e+00
 3.006666712462902069e-02 5.351938889361917973e-04 0.000000000000000000e+00
 3.013333305716514587e-02 5.351938889361917973e-04 0.000000000000000000e+00
 3.020000085234642029e-02 5.351938889361917973e-04 0.000000000000000000e+00
[...]
<CellData>
 <DataArray Name="pos.x" type="Float32" NumberOfComponents="1" format="ascii">
 3.003333333333270752e-02
 3.009999999999923848e-02
 3.016666666666576596e-02
 3.003333333333154526e-02
 3.009999999999974848e-02
 3.016666666666683108e-02
 3.003333333333156607e-02
 3.010000000000067483e-02
 3.016666666666453778e-02
 3.003333333333384897e-02
 3.009999999999802764e-02
 3.016666666666792049e-02
 3.003333333333218017e-02
 3.009999999999913092e-02
 3.016666666666594290e-02
 3.003333333333371713e-02
 3.009999999999729212e-02
 3.016666666666665067e-02
 3.003333333333207261e-02
 3.009999999999989767e-02
 3.016666666666487084e-02
 3.003333333333112892e-02
 3.010000000000129239e-02
 3.016666666666437818e-02
 3.003333333333297814e-02
 3.009999999999924195e-02
 3.016666666666657087e-02
 3.003333333333411265e-02
 3.009999999999964440e-02
 3.016666666666503738e-02
 3.003333333333088953e-02
 3.010000000000185444e-02
 3.016666666666695945e-02
 3.003333333333164240e-02
 3.010000000000107034e-02
 3.016666666666626209e-02
 3.003333333333656555e-02
 3.009999999999784029e-02
 3.016666666666530106e-02
 3.003333333333451163e-02
 3.009999999999934603e-02
 3.016666666666541555e-02
 3.003333333333263813e-02
 3.009999999999942236e-02
 3.016666666666680680e-02
 3.003333333333409183e-02
 3.009999999999865214e-02
 3.016666666667017563e-02
 3.003333333333196159e-02
 3.009999999999927664e-02
 3.016666666666729252e-02
 3.003333333333144811e-02
 3.010000000000154566e-02
 3.016666666666525942e-02
 3.003333333333101096e-02
 3.010000000000091075e-02
 3.016666666666795865e-02
 3.003333333333250629e-02
 3.010000000000056380e-02
 3.016666666666843744e-02
 3.003333333333071259e-02
 3.010000000000062972e-02
 3.016666666666594637e-02
 3.003333333333411959e-02
 3.009999999999850989e-02
 3.016666666666780253e-02
 3.003333333333334590e-02
 3.009999999999969297e-02
 3.016666666666623087e-02
 3.003333333333241609e-02
 3.009999999999901296e-02
 3.016666666666707741e-02
 3.003333333333128505e-02
 3.010000000000035564e-02
 3.016666666666880173e-02
 3.003333333333180893e-02
 3.009999999999823581e-02
 3.016666666666796906e-02
 3.003333333333028585e-02
 3.010000000000193424e-02
 3.016666666666592903e-02
 3.003333333333123301e-02
 3.009999999999853418e-02
 3.016666666666723701e-02
 3.003333333333485511e-02
 3.009999999999745518e-02
 3.016666666666830560e-02
 3.003333333333237792e-02
 3.010000000000166362e-02
 3.016666666666729599e-02
 3.003333333333553859e-02
 3.009999999999851336e-02
 3.016666666666601229e-02
 3.003333333333184363e-02
 3.010000000000005727e-02
 3.016666666666768110e-02
 3.003333333333203792e-02
 3.010000000000128892e-02
 3.016666666666591862e-02
 3.003333333333159383e-02
 3.010000000000030360e-02
 3.016666666666621352e-02
 3.003333333333195118e-02
 3.010000000000106687e-02
 3.016666666666444410e-02
 3.003333333333086178e-02
 3.010000000000027584e-02
 3.016666666666360450e-02
 3.003333333333357141e-02
 3.009999999999611250e-02
 3.016666666666855193e-02
 3.003333333333299895e-02
 3.009999999999897133e-02
 3.016666666666770885e-02
 3.003333333333263466e-02
 3.009999999999948134e-02
 3.016666666666935337e-02
 3.003333333333486205e-02
 3.010000000000017176e-02
 3.016666666666743130e-02
 3.003333333333206567e-02
 3.009999999999799641e-02
 3.016666666666737232e-02
 3.003333333333110811e-02
 3.009999999999802764e-02
 3.016666666666558555e-02
 3.003333333333315855e-02
 3.010000000000117443e-02
 3.016666666666724395e-02
 3.003333333333383856e-02
 3.010000000000028625e-02
 3.016666666666415267e-02
 3.003333333333409530e-02
 3.010000000000102524e-02
 3.016666666666725782e-02
 3.003333333333314467e-02
 3.010000000000066442e-02
 3.016666666666607127e-02
 3.003333333333221486e-02
 3.009999999999728171e-02
 3.016666666666661945e-02
 3.003333333333414040e-02
 3.009999999999952991e-02
 3.016666666666777130e-02
 3.003333333333390448e-02
 3.009999999999771539e-02
 3.016666666666545718e-02
 3.003333333333242303e-02
 3.009999999999888806e-02
 3.016666666666764640e-02
 3.003333333333140648e-02
 3.009999999999720885e-02
 3.016666666666916602e-02
 3.003333333333416469e-02
 3.010000000000014053e-02
 3.016666666666798988e-02
 3.003333333333435898e-02
 3.009999999999794090e-02
 3.016666666666751456e-02
 3.003333333333309263e-02
 3.010000000000132014e-02
 3.016666666666789273e-02
 3.003333333333395305e-02
 3.009999999999835030e-02
 3.016666666666659516e-02
 3.003333333333338406e-02
 3.009999999999916562e-02
 3.016666666666631413e-02
 3.003333333333164240e-02
 3.010000000000105647e-02
 3.016666666666714680e-02
 3.003333333333604166e-02
 3.009999999999880133e-02
 3.016666666666600882e-02
 3.003333333333363039e-02
 3.009999999999762865e-02
 3.016666666666763946e-02
 3.003333333333422020e-02
 3.009999999999823928e-02
 3.016666666666711211e-02
 3.003333333333507021e-02
 3.009999999999983869e-02
 3.016666666666565147e-02
 3.003333333333364774e-02
 3.010000000000023768e-02
 3.016666666666700108e-02
 3.003333333333296079e-02
 3.009999999999977277e-02
 3.016666666666563412e-02
 3.003333333333497654e-02
 3.009999999999754886e-02
 3.016666666666619270e-02
 3.003333333333207608e-02
 3.010000000000026196e-02
 3.016666666666562371e-02
 3.003333333333200322e-02
 3.010000000000049789e-02
 3.016666666666788232e-02
 3.003333333333322447e-02
 3.009999999999986298e-02
 3.016666666666760477e-02
 3.003333333333313426e-02
 3.009999999999870765e-02
 3.016666666666720231e-02
 3.003333333333360611e-02
 3.010000000000121259e-02
 3.016666666666859703e-02
 3.003333333333295038e-02
 3.009999999999836418e-02
 3.016666666666844437e-02
 3.003333333333302324e-02
 3.010000000000106340e-02
 3.016666666666651189e-02
 3.003333333332970645e-02
 3.009999999999924888e-02
 3.016666666666882254e-02
 3.003333333333147587e-02
 3.009999999999997747e-02
 3.016666666666661945e-02
 3.003333333333222527e-02
 3.010000000000009543e-02
 3.016666666666616495e-02
 3.003333333333375876e-02
 3.009999999999864173e-02
 3.016666666666766722e-02
 3.003333333333415428e-02
 3.009999999999561637e-02
 3.016666666666707394e-02
 3.003333333333316549e-02
 3.009999999999850295e-02
 3.016666666666753885e-02
 3.003333333333314467e-02
 3.009999999999956460e-02
 3.016666666666754926e-02
 3.003333333333253405e-02
 3.009999999999929746e-02
 3.016666666666613025e-02
 3.003333333333284283e-02
 3.010000000000031400e-02
 3.016666666666623087e-02
 3.003333333333344304e-02
 3.009999999999976583e-02
 3.016666666666626556e-02
 3.003333333333224955e-02
 3.010000000000194117e-02
 3.016666666666579372e-02
 3.003333333333310998e-02
 3.009999999999966175e-02
 3.016666666666638352e-02
 3.003333333333361305e-02
 3.009999999999969644e-02
 3.016666666666785804e-02
 3.003333333333088259e-02
 3.010000000000034523e-02
 3.016666666666650495e-02
 3.003333333333301630e-02
 3.009999999999819764e-02
 3.016666666666802110e-02
 3.003333333333450469e-02
 3.009999999999770151e-02
 3.016666666666729946e-02
 3.003333333333206220e-02
 3.010000000000048054e-02
 3.016666666666622740e-02
 3.003333333333325569e-02
 3.009999999999850989e-02
 3.016666666666874622e-02
 3.003333333333370672e-02
 3.009999999999911705e-02
 3.016666666666739660e-02
 3.003333333332912358e-02
 3.010000000000129933e-02
 3.016666666666752497e-02
 3.003333333333159036e-02
 3.010000000000100789e-02
 3.016666666666934990e-02
 3.003333333333488286e-02
 3.009999999999715334e-02
 3.016666666666702884e-02
 3.003333333333368937e-02
 3.009999999999859663e-02
 3.016666666666562718e-02
 3.003333333333129199e-02
 3.009999999999995318e-02
 3.016666666666876703e-02
 3.003333333332959543e-02
 3.009999999999988032e-02
 3.016666666666750068e-02
 3.003333333333303365e-02
 3.010000000000118831e-02
 3.016666666666453084e-02
 3.003333333333123301e-02
 3.009999999999893663e-02
 3.016666666666741742e-02
 3.003333333333293650e-02
 3.010000000000087259e-02
 3.016666666666620658e-02
 3.003333333333449429e-02
 3.009999999999879092e-02
 3.016666666666554739e-02
 3.003333333333232588e-02
 3.009999999999883949e-02
 3.016666666666537044e-02
 3.003333333333369978e-02
 3.009999999999957848e-02
 3.016666666666548147e-02
 3.003333333333562186e-02
 3.009999999999846826e-02
 3.016666666666578678e-02
 3.003333333333438673e-02
 3.010000000000015094e-02
 3.016666666666471819e-02
 3.003333333333363386e-02
 3.009999999999895745e-02
 3.016666666666793784e-02
 3.003333333333271446e-02
 3.010000000000028972e-02
 3.016666666666513799e-02
 3.003333333333034483e-02
 3.010000000000026890e-02
 3.016666666666750068e-02
 3.003333333333154526e-02
 3.009999999999956807e-02
 3.016666666666920071e-02
 3.003333333333346733e-02
 3.009999999999966522e-02
 3.016666666666743823e-02
 3.003333333333395305e-02
 3.009999999999970685e-02
 3.016666666666915214e-02
 3.003333333333207261e-02
 3.009999999999982828e-02
 3.016666666666733068e-02
 3.003333333333165975e-02
 3.009999999999877357e-02
 3.016666666666708435e-02
 3.003333333333509797e-02
 3.009999999999849254e-02
 3.016666666666704966e-02
 3.003333333333200669e-02
 3.010000000000102871e-02
 3.016666666666643556e-02
 3.003333333333372754e-02
 3.010000000000034523e-02
 3.016666666666811825e-02
 3.003333333333560451e-02
 3.009999999999755232e-02
 3.016666666666846519e-02
 3.003333333333016789e-02
 3.010000000000251016e-02
 3.016666666666630026e-02
 3.003333333333085831e-02
 3.010000000000094891e-02
 3.016666666666604005e-02
 3.003333333333308569e-02
 3.009999999999992543e-02
 3.016666666666842009e-02
 3.003333333333321406e-02
 3.010000000000123341e-02
 3.016666666666645638e-02
 3.003333333333230507e-02
 3.010000000000063319e-02
 3.016666666666857968e-02
 3.003333333333204833e-02
 3.009999999999769110e-02
 3.016666666666716068e-02
 3.003333333333543798e-02
 3.009999999999847867e-02
 3.016666666666688659e-02
 3.003333333333257568e-02
 3.009999999999982828e-02
 3.016666666666669924e-02
 3.003333333333292610e-02
 3.010000000000051176e-02
 3.016666666666669577e-02
 </DataArray>
 <DataArray Name="pos.y" type="Float32" NumberOfComponents="1" format="ascii">
 4.311550325558617857e-06
 4.311550325558766935e-06
 4.311550325558467933e-06
 1.311953932910468583e-05
 1.311953932910478578e-05
 1.311953932910541936e-05
 2.230514484406351196e-05
 2.230514484406413537e-05
 2.230514484406292581e-05
 3.188437111788338779e-05
 3.188437111788023005e-05
 3.188437111788335390e-05
 4.187388442165500887e-05
 4.187388442165319960e-05
 4.187388442165417539e-05
 5.229103899994405310e-05
 5.229103899993843557e-05
 5.229103899994429704e-05
 6.315390390987216010e-05
 6.315390390987615809e-05
 6.315390390987024919e-05
 7.448129076820795332e-05
 7.448129076821490577e-05
 7.448129076820899687e-05
 8.629278242425543770e-05
 8.629278242425161588e-05
 8.629278242425057234e-05
 9.860876257545977085e-05
 9.860876257546393148e-05
 9.860876257545731784e-05
 1.114504463415608100e-04
 1.114504463415657838e-04
 1.114504463415589262e-04
 1.248399118114490328e-04
 1.248399118114516891e-04
 1.248399118114509301e-04
 1.388001325757733974e-04
 1.388001325757542612e-04
 1.388001325757578662e-04
 1.533550112560956764e-04
 1.533550112560881412e-04
 1.533550112560779768e-04
 1.685294140397624078e-04
 1.685294140397634649e-04
 1.685294140397680998e-04
 1.843492062268968263e-04
 1.843492062268851169e-04
 1.843492062269089151e-04
 2.008412887934483537e-04
 2.008412887934497631e-04
 2.008412887934612557e-04
 2.180336359716802844e-04
 2.180336359717112654e-04
 2.180336359716853530e-04
 2.359553338452186544e-04
 2.359553338452387934e-04
 2.359553338452404739e-04
 2.546366199529906697e-04
 2.546366199529978254e-04
 2.546366199530050354e-04
 2.741089238917625856e-04
 2.741089238917971175e-04
 2.741089238917784692e-04
 2.944049089026783356e-04
 2.944049089026640241e-04
 2.944049089026812629e-04
 3.155585144214450200e-04
 3.155585144214501699e-04
 3.155585144214471884e-04
 3.376049995677008289e-04
 3.376049995676922095e-04
 3.376049995676835900e-04
 3.605809875409312390e-04
 3.605809875409650119e-04
 3.605809875409746613e-04
 3.845245108857303336e-04
 3.845245108857251837e-04
 3.845245108857453498e-04
 4.094750575794860116e-04
 4.094750575795331202e-04
 4.094750575794955526e-04
 4.354736178902215960e-04
 4.354736178902360701e-04
 4.354736178902406780e-04
 4.625627319406490617e-04
 4.625627319406036336e-04
 4.625627319406490075e-04
 4.907865379071169607e-04
 4.907865379071427647e-04
 4.907865379071143586e-04
 5.201908207711104922e-04
 5.201908207710530295e-04
 5.201908207710677747e-04
 5.508230615283901113e-04
 5.508230615284160237e-04
 5.508230615284299015e-04
 5.827324867517059753e-04
 5.827324867517742800e-04
 5.827324867517021806e-04
 6.159701183857485508e-04
 6.159701183857555981e-04
 6.159701183857515866e-04
 6.505888236429594037e-04
 6.505888236430204443e-04
 6.505888236429425986e-04
 6.866433648508476865e-04
 6.866433648508930062e-04
 6.866433648508090890e-04
 7.241904490860642243e-04
 7.241904490859516841e-04
 7.241904490860591286e-04
 7.632887774125491449e-04
 7.632887774124826833e-04
 7.632887774125483860e-04
 8.039990935242989937e-04
 8.039990935243006200e-04
 8.039990935243511438e-04
 8.463842315697697001e-04
 8.463842315696989017e-04
 8.463842315697609180e-04
 8.905091629169515710e-04
 8.905091629169845308e-04
 8.905091629170280073e-04
 9.364410415954940725e-04
 9.364410415954777011e-04
 9.364410415954772674e-04
 9.842492481250859904e-04
 9.842492481250864240e-04
 9.842492481250400202e-04
 1.034005431419343559e-03
 1.034005431419280025e-03
 1.034005431419264412e-03
 1.085783548423972789e-03
 1.085783548424010085e-03
 1.085783548423931372e-03
 1.139659901122042768e-03
 1.139659901122022168e-03
 1.139659901122038431e-03
 1.195713170509567561e-03
 1.195713170509548479e-03
 1.195713170509635215e-03
 1.254024447115473619e-03
 1.254024447115417240e-03
 1.254024447115490099e-03
 1.314677257606633280e-03
 1.314677257606615933e-03
 1.314677257606626124e-03
 1.377757586988947536e-03
 1.377757586989014973e-03
 1.377757586989033188e-03
 1.443353895878877677e-03
 1.443353895878912588e-03
 1.443353895879012552e-03
 1.511557132287823886e-03
 1.511557132287847521e-03
 1.511557132287811960e-03
 1.582460737325485332e-03
 1.582460737325318365e-03
 1.582460737325484248e-03
 1.656160644195048921e-03
 1.656160644195120695e-03
 1.656160644195024852e-03
 1.732755269813034864e-03
 1.732755269812911916e-03
 1.732755269812991496e-03
 1.812345498355128794e-03
 1.812345498355088895e-03
 1.812345498355181486e-03
 1.895034655993343498e-03
 1.895034655993431969e-03
 1.895034655993404213e-03
 1.980928476052264305e-03
 1.980928476052011035e-03
 1.980928476052055270e-03
 2.070135053781569767e-03
 2.070135053781391957e-03
 2.070135053781493439e-03
 2.162764789912056517e-03
 2.162764789911874805e-03
 2.162764789911970648e-03
 2.258930322124931903e-03
 2.258930322124840830e-03
 2.258930322124802232e-03
 2.358746443547221194e-03
 2.358746443547213821e-03
 2.358746443547204714e-03
 2.462330007354753079e-03
 2.462330007354770860e-03
 2.462330007354675016e-03
 2.569799816548912902e-03
 2.569799816548708638e-03
 2.569799816548783231e-03
 2.681276497956281476e-03
 2.681276497956437167e-03
 2.681276497956289282e-03
 2.796882359495795212e-03
 2.796882359495959577e-03
 2.796882359495904500e-03
 2.916741229747060824e-03
 2.916741229747103325e-03
 2.916741229747184857e-03
 3.040978278870122044e-03
 3.040978278869897831e-03
 3.040978278870037476e-03
 3.169719819931165593e-03
 3.169719819931355112e-03
 3.169719819931394143e-03
 3.303093089720203490e-03
 3.303093089719895577e-03
 3.303093089720215200e-03
 3.441226008171520238e-03
 3.441226008171685471e-03
 3.441226008171683302e-03
 3.584246915556596382e-03
 3.584246915556746869e-03
 3.584246915557177515e-03
 3.732284286668473890e-03
 3.732284286668551953e-03
 3.732284286668736701e-03
 3.885466421290637972e-03
 3.885466421290712999e-03
 3.885466421290535190e-03
 4.043921110344170233e-03
 4.043921110343992424e-03
 4.043921110344225744e-03
 4.207775277196120628e-03
 4.207775277195302706e-03
 4.207775277195763275e-03
 4.377154593745416836e-03
 4.377154593745158362e-03
 4.377154593745570359e-03
 4.552183071047417526e-03
 4.552183071047444414e-03
 4.552183071047304769e-03
 4.732982624381931736e-03
 4.732982624381966430e-03
 4.732982624381850204e-03
 4.919672612876208918e-03
 4.919672612876140397e-03
 4.919672612876317339e-03
 5.112369353970599647e-03
 5.112369353970455665e-03
 5.112369353970330765e-03
 5.311185613253753719e-03
 5.311185613254039949e-03
 5.311185613253531675e-03
 5.516230070431059861e-03
 5.516230070430923685e-03
 5.516230070431192567e-03
 5.727606762446916036e-03
 5.727606762446988027e-03
 5.727606762447088641e-03
 5.945414505077325010e-03
 5.945414505077704914e-03
 5.945414505077372715e-03
 6.169746294597103047e-03
 6.169746294596419565e-03
 6.169746294597239222e-03
 6.400688691447937832e-03
 6.400688691447379251e-03
 6.400688691447914414e-03
 6.638321188172439415e-03
 6.638321188172995393e-03
 6.638321188172714368e-03
 6.882715564212668960e-03
 6.882715564212175431e-03
 6.882715564212698450e-03
 7.133935230524155423e-03
 7.133935230523922102e-03
 7.133935230524153688e-03
 7.392034567336263490e-03
 7.392034567337376315e-03
 7.392034567337155138e-03
 7.657058258720666859e-03
 7.657058258721104876e-03
 7.657058258721760602e-03
 7.929040627994201826e-03
 7.929040627992971907e-03
 7.929040627993632837e-03
 8.208004978346726196e-03
 8.208004978346099961e-03
 8.208004978346377517e-03
 8.493962943394895923e-03
 8.493962943395149193e-03
 8.493962943395702569e-03
 8.786913852672717518e-03
 8.786913852673348957e-03
 8.786913852673760086e-03
 9.086844117365350249e-03
 9.086844117365714540e-03
 9.086844117364977283e-03
 9.393726641826385254e-03
 9.393726641826730464e-03
 9.393726641826969856e-03
 9.707520266640175949e-03
 9.707520266640441362e-03
 9.707520266639894924e-03
 1.002816924911131835e-02
 1.002816924911076150e-02
 1.002816924911059324e-02
 1.035560278720493860e-02
 1.035560278720457084e-02
 1.035560278720408858e-02
 1.068973459296428119e-02
 1.068973459296419619e-02
 1.068973459296337913e-02
 1.103046252140616086e-02
 1.103046252140473318e-02
 1.103046252140506625e-02
 1.137766826078896384e-02
 1.137766826078779117e-02
 1.137766826078774260e-02
 1.173121708995861212e-02
 1.173121708995739261e-02
 1.173121708995796854e-02
 1.209095770818545586e-02
 1.209095770818567617e-02
 1.209095770818572647e-02
 1.245672214257219183e-02
 1.245672214257310430e-02
 1.245672214257284756e-02
 1.282832573763630253e-02
 1.282832573763662519e-02
 1.282832573763735030e-02
 1.320556723115272856e-02
 1.320556723115219946e-02
 1.320556723115265223e-02
 1.358822891971851049e-02
 1.358822891971886958e-02
 1.358822891971924081e-02
 1.397607691679341770e-02
 1.397607691679420006e-02
 1.397607691679357902e-02
 1.436886150519331613e-02
 1.436886150519389900e-02
 1.436886150519402737e-02
 1.476631758517949790e-02
 1.476631758517796961e-02
 1.476631758517866176e-02
 1.516816521836405161e-02
 1.516816521836497449e-02
 1.516816521836403080e-02
 1.557411026674638231e-02
 1.557411026674589832e-02
 1.557411026674703110e-02
 1.598384512513367425e-02
 1.598384512513179034e-02
 1.598384512513364997e-02
 1.639704954429254194e-02
 1.639704954429440503e-02
 1.639704954429290276e-02
 1.681339154111025774e-02
 1.681339154111261697e-02
 1.681339154111102449e-02
 1.723252839104771894e-02
 1.723252839104840589e-02
 1.723252839104762874e-02
 1.765410769724785889e-02
 1.765410769724852849e-02
 1.765410769724782766e-02
 1.807776852971057155e-02
 1.807776852971112666e-02
 1.807776852971197667e-02
 1.850314262708369073e-02
 1.850314262708324664e-02
 1.850314262708464830e-02
 1.892985565286012251e-02
 1.892985565285787083e-02
 1.892985565285892208e-02
 1.935752849706971063e-02
 1.935752849706988757e-02
 1.935752849707006451e-02
 1.978577861400717189e-02
 1.978577861400789700e-02
 1.978577861400744597e-02
 </DataArray>
 <DataArray Name="pos.z" type="Float32" NumberOfComponents="1" format="ascii">
 0.000000000000000000e+00
 0.000000000000000000e+00
 0.000000000000000000e+00
 0.000000000000000000e+00
 0.000000000000000000e+00
 0.000000000000000000e+00
 0.000000000000000000e+00
 0.000000000000000000e+00