<VTKFile type="UnstructuredGrid" byte_order="BigEndian">
<UnstructuredGrid><Piece NumberOfPoints="3906" NumberOfCells="3750">
<Points>
 <DataArray type="Float32" NumberOfComponents="3" format="ascii">
 0.000000000000000000e+00 0.000000000000000000e+00 0.000000000000000000e+00
 2.349080517888069153e-03 0.000000000000000000e+00 0.000000000000000000e+00
 4.670635797083377838e-03 0.000000000000000000e+00 0.000000000000000000e+00
 6.938416510820388794e-03 0.000000000000000000e+00 0.000000000000000000e+00
 9.128598496317863464e-03 0.000000000000000000e+00 0.000000000000000000e+00
 1.122071035206317902e-02 0.000000000000000000e+00 0.000000000000000000e+00
 1.319826301187276840e-02 0.000000000000000000e+00 0.000000000000000000e+00
 1.504905428737401962e-02 0.000000000000000000e+00 0.000000000000000000e+00
 1.676518097519874573e-02 0.000000000000000000e+00 0.000000000000000000e+00
 1.834277436137199402e-02 0.000000000000000000e+00 0.000000000000000000e+00
 1.978156343102455139e-02 0.000000000000000000e+00 0.000000000000000000e+00
 2.108429931104183197e-02 0.000000000000000000e+00 0.000000000000000000e+00
 2.225614152848720551e-02 0.000000000000000000e+00 0.000000000000000000e+00
 2.330404520034790039e-02 0.000000000000000000e+00 0.000000000000000000e+00
 2.423618920147418976e-02 0.000000000000000000e+00 0.000000000000000000e+00
 2.506147697567939758e-02 0.000000000000000000e+00 0.000000000000000000e+00
 2.578912675380706787e-02 0.000000000000000000e+00 0.000000000000000000e+00
 2.642834186553955078e-02 0.000000000000000000e+00 0.000000000000000000e+00
 2.698806673288345337e-02 0.000000000000000000e+00 0.000000000000000000e+00
 2.747680433094501495e-02 0.000000000000000000e+00 0.000000000000000000e+00
 2.790250815451145172e-02 0.000000000000000000e+00 0.000000000000000000e+00
 2.827251143753528595e-02 0.000000000000000000e+00 0.000000000000000000e+00
 2.859350293874740601e-02 0.000000000000000000e+00 0.000000000000000000e+00
 2.887152694165706635e-02 0.000000000000000000e+00 0.000000000000000000e+00
 2.911199443042278290e-02 0.000000000000000000e+00 0.000000000000000000e+00
 2.931972779333591461e-02 0.000000000000000000e+00 0.000000000000000000e+00
 2.949899621307849884e-02 0.000000000000000000e+00 0.000000000000000000e+00
 2.965355850756168365e-02 0.000000000000000000e+00 0.000000000000000000e+00
 2.978671714663505554e-02 0.000000000000000000e+00 0.000000000000000000e+00
 2.990135923027992249e-02 0.000000000000000000e+00 0.000000000000000000e+00
 2.999999932944774628e-02 0.000000000000000000e+00 0.000000000000000000e+00
 0.000000000000000000e+00 8.623100256954785436e-06 0.000000000000000000e+00
 2.349080517888069153e-03 8.623100256954785436e-06 0.000000000000000000e+00
 4.670635797083377838e-03 8.623100256954785436e-06 0.000000000000000000e+00
 6.938416510820388794e-03 8.623100256954785436e-06 0.000000000000000000e+00
 9.128598496317863464e-03 8.623100256954785436e-06 0.000000000000000000e+00
 1.122071035206317902e-02 8.623100256954785436e-06 0.000000000000000000e+00
 1.319826301187276840e-02 8.623100256954785436e-06 0.000000000000000000e+00
 1.504905428737401962e-02 8.623100256954785436e-06 0.000000000000000000e+00
 1.676518097519874573e-02 8.623100256954785436e-06 0.000000000000000000e+00
 1.834277436137199402e-02 8.623100256954785436e-06 0.000000000000000000e+00
 1.978156343102455139e-02 8.623100256954785436e-06 0.000000000000000000e+00
 2.108429931104183197e-02 8.623100256954785436e-06 0.000000000000000000e+00
 2.225614152848720551e-02 8.623100256954785436e-06 0.000000000000000000e+00
 2.330404520034790039e-02 8.623100256954785436e-06 0.000000000000000000e+00
 2.423618920147418976e-02 8.623100256954785436e-06 0.000000000000000000e+00
 2.506147697567939758e-02 8.623100256954785436e-06 0.000000000000000000e+00
 2.578912675380706787e-02 8.623100256954785436e-06 0.000000000000000000e+00
 2.642834186553955078e-02 8.623100256954785436e-06 0.000000000000000000e+00
 2.698806673288345337e-02 8.623100256954785436e-06 0.000000000000000000e+00
 2.747680433094501495e-02 8.623100256954785436e-06 0.000000000000000000e+00
 2.790250815451145172e-02 8.623100256954785436e-06 0.000000000000000000e+00
 2.827251143753528595e-02 8.623100256954785436e-06 0.000000000000000000e+00
 2.859350293874740601e-02 8.623100256954785436e-06 0.000000000000000000e+00
 2.887152694165706635e-02 8.623100256954785436e-06 0.000000000000000000e+00
 2.911199443042278290e-02 8.623100256954785436e-06 0.000000000000000000e+00
 2.931972779333591461e-02 8.623100256954785436e-06 0.000000000000000000e+00
 2.949899621307849884e-02 8.623100256954785436e-06 0.000000000000000000e+00
 2.965355850756168365e-02 8.623100256954785436e-06 0.000000000000000000e+00
 2.978671714663505554e-02 8.623100256954785436e-06 0.000000000000000000e+00
 2.990135923027992249e-02 8.623100256954785436e-06 0.000000000000000000e+00
 2.999999932944774628e-02 8.623100256954785436e-06 0.000000000000000000e+00
 0.000000000000000000e+00 1.761597741278819740e-05 0.000000000000000000e+00
 2.349080517888069153e-03 1.761597741278819740e-05 0.000000000000000000e+00
 4.670635797083377838e-03 1.761597741278819740e-05 0.000000000000000000e+00
 6.938416510820388794e-03 1.761597741278819740e-05 0.000000000000000000e+00
 9.128598496317863464e-03 1.761597741278819740e-05 0.000000000000000000e+00
 1.122071035206317902e-02 1.761597741278819740e-05 0.000000000000000000e+00
 1.319826301187276840e-02 1.761597741278819740e-05 0.000000000000000000e+00
 1.504905428737401962e-02 1.761597741278819740e-05 0.000000000000000000e+00
 1.676518097519874573e-02 1.761597741278819740e-05 0.000000000000000000e+00
 1.834277436137199402e-02 1.761597741278819740e-05 0.000000000000000000e+00
 1.978156343102455139e-02 1.761597741278819740e-05 0.000000000000000000e+00
 2.108429931104183197e-02 1.761597741278819740e-05 0.000000000000000000e+00
 2.225614152848720551e-02 1.761597741278819740e-05 0.000000000000000000e+00
 2.330404520034790039e-02 1.761597741278819740e-05 0.000000000000000000e+00
 2.423618920147418976e-02 1.761597741278819740e-05 0.000000000000000000e+00
 2.506147697567939758e-02 1.761597741278819740e-05 0.000000000000000000e+00
 2.578912675380706787e-02 1.761597741278819740e-05 0.000000000000000000e+00
 2.642834186553955078e-02 1.761597741278819740e-05 0.000000000000000000e+00
 2.698806673288345337e-02 1.761597741278819740e-05 0.000000000000000000e+00
 2.747680433094501495e-02 1.761597741278819740e-05 0.000000000000000000e+00
 2.790250815451145172e-02 1.761597741278819740e-05 0.000000000000000000e+00
 2.827251143753528595e-02 1.761597741278819740e-05 0.000000000000000000e+00
 2.859350293874740601e-02 1.761597741278819740e-05 0.000000000000000000e+00
 2.887152694165706635e-02 1.761597741278819740e-05 0.000000000000000000e+00
 2.911199443042278290e-02 1.761597741278819740e-05 0.000000000000000000e+00
 2.931972779333591461e-02 1.761597741278819740e-05 0.000000000000000000e+00
 2.949899621307849884e-02 1.761597741278819740e-05 0.000000000000000000e+00
 2.965355850756168365e-02 1.761597741278819740e-05 0.000000000000000000e+00
 2.978671714663505554e-02 1.761597741278819740e-05 0.000000000000000000e+00
 2.990135923027992249e-02 1.761597741278819740e-05 0.000000000000000000e+00
 2.999999932944774628e-02 1.761597741278819740e-05 0.000000000000000000e+00
 0.000000000000000000e+00 2.699431206565350294e-05 0.000000000000000000e+00
 2.349080517888069153e-03 2.699431206565350294e-05 0.000000000000000000e+00
 4.670635797083377838e-03 2.699431206565350294e-05 0.000000000000000000e+00
 6.938416510820388794e-03 2.699431206565350294e-05 0.000000000000000000e+00
 9.128598496317863464e-03 2.699431206565350294e-05 0.000000000000000000e+00
 1.122071035206317902e-02 2.699431206565350294e-05 0.000000000000000000e+00
 1.319826301187276840e-02 2.699431206565350294e-05 0.000000000000000000e+00
 1.504905428737401962e-02 2.699431206565350294e-05 0.000000000000000000e+00
 1.676518097519874573e-02 2.699431206565350294e-05 0.000000000000000000e+00
 1.834277436137199402e-02 2.699431206565350294e-05 0.000000000000000000e+00
 1.978156343102455139e-02 2.699431206565350294e-05 0.000000000000000000e+00
 2.108429931104183197e-02 2.699431206565350294e-05 0.000000000000000000e+00
 2.225614152848720551e-02 2.699431206565350294e-05 0.000000000000000000e+00
 2.330404520034790039e-02 2.699431206565350294e-05 0.000000000000000000e+00
 2.423618920147418976e-02 2.699431206565350294e-05 0.000000000000000000e+00
 2.506147697567939758e-02 2.699431206565350294e-05 0.000000000000000000e+00
 2.578912675380706787e-02 2.699431206565350294e-05 0.000000000000000000e+00
 2.642834186553955078e-02 2.699431206565350294e-05 0.000000000000000000e+00
 2.698806673288345337e-02 2.699431206565350294e-05 0.000000000000000000e+00
 2.747680433094501495e-02 2.699431206565350294e-05 0.000000000000000000e+00
 2.790250815451145172e-02 2.699431206565350294e-05 0.000000000000000000e+00
 2.827251143753528595e-02 2.699431206565350294e-05 0.000000000000000000e+00
 2.859350293874740601e-02 2.699431206565350294e-05 0.000000000000000000e+00
 2.887152694165706635e-02 2.699431206565350294e-05 0.000000000000000000e+00
 2.911199443042278290e-02 2.699431206565350294e-05 0.000000000000000000e+00
 2.931972779333591461e-02 2.699431206565350294e-05 0.000000000000000000e+00
 2.949899621307849884e-02 2.699431206565350294e-05 0.000000000000000000e+00
 2.965355850756168365e-02 2.699431206565350294e-05 0.000000000000000000e+00
 2.978671714663505554e-02 2.699431206565350294e-05 0.000000000000000000e+00
 2.990135923027992249e-02 2.699431206565350294e-05 0.000000000000000000e+00
 2.999999932944774628e-02 2.699431206565350294e-05 0.000000000000000000e+00
 0.000000000000000000e+00 3.677442873595282435e-05 0.000000000000000000e+00
 2.349080517888069153e-03 3.677442873595282435e-05 0.000000000000000000e+00
 4.670635797083377838e-03 3.677442873595282435e-05 0.000000000000000000e+00
 6.938416510820388794e-03 3.677442873595282435e-05 0.000000000000000000e+00
[...]
<CellData>
 <DataArray Name="pos.x" type="Float32" NumberOfComponents="1" format="ascii">
 1.174540262590806263e-03
 3.509858235623772478e-03
 5.804526126537121883e-03
 8.033507372440204172e-03
 1.017465456001863736e-02
 1.220948667377178172e-02
 1.412365858081642174e-02
 1.590711750280031367e-02
 1.755397753710555286e-02
 1.906216886804101840e-02
 2.043293103079390355e-02
 2.167022039043541709e-02
 2.278009383341125446e-02
 2.377011727520939033e-02
 2.464883244698520826e-02
 2.542530115496973234e-02
 2.610873437865406793e-02
 2.670820481779082739e-02
 2.723243576491696238e-02
 2.768965602259105402e-02
 2.808750939305789535e-02
 2.843300742986169111e-02
 2.873251512917840422e-02
 2.899176064707569347e-02
 2.921586167218744728e-02
 2.940936257944270008e-02
 2.957627783710220504e-02
 2.972013829020353839e-02
 2.984403788890493264e-02
 2.995067918200367690e-02
 1.174540262590806263e-03
 3.509858235623772478e-03
 5.804526126537121883e-03
 8.033507372440204172e-03
 1.017465456001863736e-02
 1.220948667377178172e-02
 1.412365858081642347e-02
 1.590711750280031367e-02
 1.755397753710555633e-02
 1.906216886804102187e-02
 2.043293103079390355e-02
 2.167022039043541709e-02
 2.278009383341125446e-02
 2.377011727520939727e-02
 2.464883244698521172e-02
 2.542530115496973234e-02
 2.610873437865406446e-02
 2.670820481779082739e-02
 2.723243576491696238e-02
 2.768965602259105402e-02
 2.808750939305789535e-02
 2.843300742986169111e-02
 2.873251512917840422e-02
 2.899176064707569347e-02
 2.921586167218744381e-02
 2.940936257944270008e-02
 2.957627783710220504e-02
 2.972013829020353839e-02
 2.984403788890493264e-02
 2.995067918200367690e-02
 1.174540262590806263e-03
 3.509858235623772478e-03
 5.804526126537121883e-03
 8.033507372440204172e-03
 1.017465456001863736e-02
 1.220948667377178172e-02
 1.412365858081642174e-02
 1.590711750280031367e-02
 1.755397753710555286e-02
 1.906216886804101840e-02
 2.043293103079390008e-02
 2.167022039043541709e-02
 2.278009383341125446e-02
 2.377011727520939380e-02
 2.464883244698521172e-02
 2.542530115496973234e-02
 2.610873437865406793e-02
 2.670820481779082739e-02
 2.723243576491696238e-02
 2.768965602259105402e-02
 2.808750939305789535e-02
 2.843300742986169111e-02
 2.873251512917840422e-02
 2.899176064707569694e-02
 2.921586167218744728e-02
 2.940936257944269661e-02
 2.957627783710220157e-02
 2.972013829020353839e-02
 2.984403788890493264e-02
 2.995067918200367690e-02
 1.174540262590806263e-03
 3.509858235623772478e-03
 5.804526126537121883e-03
 8.033507372440204172e-03
 1.017465456001863736e-02
 1.220948667377178345e-02
 1.412365858081642347e-02
 1.590711750280031367e-02
 1.755397753710555286e-02
 1.906216886804101840e-02
 2.043293103079390008e-02
 2.167022039043541709e-02
 2.278009383341125099e-02
 2.377011727520939033e-02
 2.464883244698520826e-02
 2.542530115496973234e-02
 2.610873437865406793e-02
 2.670820481779082739e-02
 2.723243576491696238e-02
 2.768965602259105402e-02
 2.808750939305789535e-02
 2.843300742986169111e-02
 2.873251512917840422e-02
 2.899176064707569694e-02
 2.921586167218744381e-02
 2.940936257944270008e-02
 2.957627783710220157e-02
 2.972013829020353839e-02
 2.984403788890493264e-02
 2.995067918200366996e-02
 1.174540262590806263e-03
 3.509858235623772478e-03
 5.804526126537121883e-03
 8.033507372440205907e-03
 1.017465456001863736e-02
 1.220948667377178172e-02
 1.412365858081642174e-02
 1.590711750280031367e-02
 1.755397753710555286e-02
 1.906216886804101840e-02
 2.043293103079390008e-02
 2.167022039043541709e-02
 2.278009383341125099e-02
 2.377011727520939033e-02
 2.464883244698520826e-02
 2.542530115496973234e-02
 2.610873437865406446e-02
 2.670820481779082739e-02
 2.723243576491696238e-02
 2.768965602259105402e-02
 2.808750939305789535e-02
 2.843300742986169111e-02
 2.873251512917840422e-02
 2.899176064707569694e-02
 2.921586167218744728e-02
 2.940936257944270008e-02
 2.957627783710220504e-02
 2.972013829020353839e-02
 2.984403788890493264e-02
 2.995067918200367343e-02
 1.174540262590806263e-03
 3.509858235623772478e-03
 5.804526126537121883e-03
 8.033507372440204172e-03
 1.017465456001863562e-02
 1.220948667377178172e-02
 1.412365858081642347e-02
 1.590711750280031020e-02
 1.755397753710555286e-02
 1.906216886804101840e-02
 2.043293103079390008e-02
 2.167022039043541362e-02
 2.278009383341125099e-02
 2.377011727520939380e-02
 2.464883244698521172e-02
 2.542530115496973234e-02
 2.610873437865406446e-02
 2.670820481779082739e-02
 2.723243576491696238e-02
 2.768965602259105402e-02
 2.808750939305789188e-02
 2.843300742986169111e-02
 2.873251512917840075e-02
 2.899176064707569347e-02
 2.921586167218744728e-02
 2.940936257944270008e-02
 2.957627783710220504e-02
 2.972013829020353839e-02
 2.984403788890493611e-02
 2.995067918200367690e-02
 1.174540262590806263e-03
 3.509858235623772044e-03
 5.804526126537121883e-03
 8.033507372440202438e-03
 1.017465456001863562e-02
 1.220948667377178172e-02
 1.412365858081642174e-02
 1.590711750280031367e-02
 1.755397753710555286e-02
 1.906216886804101840e-02
 2.043293103079390008e-02
 2.167022039043541015e-02
 2.278009383341125099e-02
 2.377011727520939033e-02
 2.464883244698521172e-02
 2.542530115496973234e-02
 2.610873437865406446e-02
 2.670820481779082739e-02
 2.723243576491696238e-02
 2.768965602259105402e-02
 2.808750939305789535e-02
 2.843300742986169111e-02
 2.873251512917840422e-02
 2.899176064707569694e-02
 2.921586167218744728e-02
 2.940936257944269661e-02
 2.957627783710220157e-02
 2.972013829020353839e-02
 2.984403788890493264e-02
 2.995067918200367343e-02
 1.174540262590806046e-03
 3.509858235623772044e-03
 5.804526126537120148e-03
 8.033507372440202438e-03
 1.017465456001863562e-02
 1.220948667377178172e-02
 1.412365858081642174e-02
 1.590711750280031367e-02
 1.755397753710555286e-02
 1.906216886804101840e-02
 2.043293103079390355e-02
 2.167022039043541709e-02
 2.278009383341125099e-02
 2.377011727520939380e-02
 2.464883244698520826e-02
 2.542530115496972887e-02
 2.610873437865406446e-02
 2.670820481779082739e-02
 2.723243576491696238e-02
 2.768965602259105402e-02
 2.808750939305789535e-02
 2.843300742986169111e-02
 2.873251512917840075e-02
 2.899176064707569347e-02
 2.921586167218744381e-02
 2.940936257944270008e-02
 2.957627783710219810e-02
 2.972013829020353493e-02
 2.984403788890493264e-02
 2.995067918200367690e-02
 1.174540262590806046e-03
 3.509858235623771611e-03
 5.804526126537121883e-03
 8.033507372440204172e-03
 1.017465456001863736e-02
 1.220948667377178172e-02
 1.412365858081642347e-02
 1.590711750280031367e-02
 1.755397753710555286e-02
 1.906216886804101840e-02
 2.043293103079390008e-02
 2.167022039043541709e-02
 2.278009383341125446e-02
 2.377011727520939380e-02
 2.464883244698520826e-02
 2.542530115496972887e-02
 2.610873437865406446e-02
 2.670820481779082739e-02
 2.723243576491696238e-02
 2.768965602259105402e-02
 2.808750939305789882e-02
 2.843300742986169111e-02
 2.873251512917840075e-02
 2.899176064707569347e-02
 2.921586167218744728e-02
 2.940936257944270008e-02
 2.957627783710219810e-02
 2.972013829020353839e-02
 2.984403788890493611e-02
 2.995067918200367343e-02
 1.174540262590806263e-03
 3.509858235623771611e-03
 5.804526126537121883e-03
 8.033507372440205907e-03
 1.017465456001863736e-02
 1.220948667377178345e-02
 1.412365858081642347e-02
 1.590711750280031367e-02
 1.755397753710555633e-02
 1.906216886804102187e-02
 2.043293103079390355e-02
 2.167022039043541709e-02
 2.278009383341125446e-02
 2.377011727520939033e-02
 2.464883244698520826e-02
 2.542530115496973234e-02
 2.610873437865407140e-02
 2.670820481779083086e-02
 2.723243576491696585e-02
 2.768965602259105402e-02
 2.808750939305789535e-02
 2.843300742986169111e-02
 2.873251512917840422e-02
 2.899176064707569694e-02
 2.921586167218744728e-02
 2.940936257944270008e-02
 2.957627783710220504e-02
 2.972013829020354186e-02
 2.984403788890493958e-02
 2.995067918200367690e-02
 1.174540262590806263e-03
 3.509858235623772478e-03
 5.804526126537121883e-03
 8.033507372440204172e-03
 1.017465456001863736e-02
 1.220948667377178345e-02
 1.412365858081642347e-02
 1.590711750280031367e-02
 1.755397753710555286e-02
 1.906216886804102187e-02
 2.043293103079390355e-02
 2.167022039043541709e-02
 2.278009383341125446e-02
 2.377011727520939380e-02
 2.464883244698520826e-02
 2.542530115496973581e-02
 2.610873437865407487e-02
 2.670820481779083433e-02
 2.723243576491696238e-02
 2.768965602259105402e-02
 2.808750939305789535e-02
 2.843300742986169111e-02
 2.873251512917840422e-02
 2.899176064707569694e-02
 2.921586167218744728e-02
 2.940936257944270354e-02
 2.957627783710220504e-02
 2.972013829020354186e-02
 2.984403788890493264e-02
 2.995067918200367690e-02
 1.174540262590806263e-03
 3.509858235623772478e-03
 5.804526126537121883e-03
 8.033507372440205907e-03
 1.017465456001863736e-02
 1.220948667377178345e-02
 1.412365858081642347e-02
 1.590711750280031367e-02
 1.755397753710555286e-02
 1.906216886804102187e-02
 2.043293103079390355e-02
 2.167022039043542056e-02
 2.278009383341125793e-02
 2.377011727520939033e-02
 2.464883244698520826e-02
 2.542530115496973234e-02
 2.610873437865406793e-02
 2.670820481779083433e-02
 2.723243576491696238e-02
 2.768965602259105402e-02
 2.808750939305789535e-02
 2.843300742986169111e-02
 2.873251512917840422e-02
 2.899176064707569694e-02
 2.921586167218744728e-02
 2.940936257944270354e-02
 2.957627783710220504e-02
 2.972013829020353839e-02
 2.984403788890493264e-02
 2.995067918200366996e-02
 1.174540262590806263e-03
 3.509858235623772478e-03
 5.804526126537121883e-03
 8.033507372440205907e-03
 1.017465456001863736e-02
 1.220948667377178172e-02
 1.412365858081642174e-02
 1.590711750280031367e-02
 1.755397753710555286e-02
 1.906216886804101840e-02
 2.043293103079390355e-02
 2.167022039043541709e-02
 2.278009383341125793e-02
 2.377011727520939727e-02
 2.464883244698521172e-02
 2.542530115496973234e-02
 2.610873437865406793e-02
 2.670820481779083433e-02
 2.723243576491696585e-02
 2.768965602259105402e-02
 2.808750939305789535e-02
 2.843300742986169111e-02
 2.873251512917840422e-02
 2.899176064707569694e-02
 2.921586167218744728e-02
 2.940936257944270008e-02
 2.957627783710220504e-02
 2.972013829020353839e-02
 2.984403788890493611e-02
 2.995067918200367343e-02
 1.174540262590806263e-03
 3.509858235623772478e-03
 5.804526126537121883e-03
 8.033507372440204172e-03
 1.017465456001863736e-02
 1.220948667377177999e-02
 1.412365858081642347e-02
 1.590711750280031367e-02
 1.755397753710555286e-02
 1.906216886804101840e-02
 2.043293103079390355e-02
 2.167022039043541709e-02
 2.278009383341125793e-02
 2.377011727520939727e-02
 2.464883244698520826e-02
 2.542530115496973234e-02
 2.610873437865406793e-02
 2.670820481779083086e-02
 2.723243576491696238e-02
 2.768965602259105402e-02
 2.808750939305789535e-02
 2.843300742986169111e-02
 2.873251512917840422e-02
 2.899176064707569694e-02
 2.921586167218744728e-02
 2.940936257944270008e-02
 2.957627783710220504e-02
 2.972013829020354186e-02
 2.984403788890493264e-02
 2.995067918200367690e-02
 1.174540262590806263e-03
 3.509858235623772478e-03
 5.804526126537121883e-03
 8.033507372440204172e-03
 1.017465456001863389e-02
 1.220948667377178172e-02
 1.412365858081642347e-02
 1.590711750280031367e-02
 1.755397753710555286e-02
 1.906216886804101840e-02
 2.043293103079390008e-02
 2.167022039043541015e-02
 2.278009383341125446e-02
 2.377011727520939727e-02
 2.464883244698520826e-02
 2.542530115496973234e-02
 2.610873437865406793e-02
 2.670820481779083086e-02
 2.723243576491696238e-02
 2.768965602259105402e-02
 2.808750939305789535e-02
 2.843300742986169111e-02
 2.873251512917840422e-02
 2.899176064707569694e-02
 2.921586167218744728e-02
 2.940936257944270008e-02
 2.957627783710220504e-02
 2.972013829020353839e-02
 2.984403788890493264e-02
 2.995067918200367690e-02
 1.174540262590806263e-03
 3.509858235623772044e-03
 5.804526126537120148e-03
 8.033507372440204172e-03
 1.017465456001863736e-02
 1.220948667377178172e-02
 1.412365858081642347e-02
 1.590711750280031367e-02
 1.755397753710555286e-02
 1.906216886804101840e-02
 2.043293103079390355e-02
 2.167022039043541362e-02
 2.278009383341125446e-02
 2.377011727520939727e-02
 2.464883244698520826e-02
 2.542530115496973234e-02
 2.610873437865406793e-02
 2.670820481779083086e-02
 2.723243576491696238e-02
 2.768965602259105402e-02
 2.808750939305789535e-02
 2.843300742986168764e-02
 2.873251512917840075e-02
 2.899176064707569694e-02
 2.921586167218744728e-02
 2.940936257944270008e-02
 2.957627783710220504e-02
 2.972013829020353839e-02
 2.984403788890493611e-02
 2.995067918200367690e-02
 1.174540262590806263e-03
 3.509858235623772478e-03
 5.804526126537121015e-03
 8.033507372440204172e-03
 1.017465456001863736e-02
 1.220948667377178172e-02
 1.412365858081642347e-02
 1.590711750280031367e-02
 1.755397753710555286e-02
 1.906216886804102187e-02
 2.043293103079390355e-02
 2.167022039043541709e-02
 2.278009383341125446e-02
 2.377011727520939380e-02
 2.464883244698521172e-02
 2.542530115496973234e-02
 2.610873437865406793e-02
 2.670820481779083433e-02
 2.723243576491696238e-02
 2.768965602259105402e-02
 2.808750939305789882e-02
 2.843300742986169458e-02
 2.873251512917840422e-02
 2.899176064707569694e-02
 2.921586167218744728e-02
 2.940936257944270354e-02
 2.957627783710220504e-02
 2.972013829020354186e-02
 2.984403788890493264e-02
 2.995067918200367690e-02
 1.174540262590806263e-03
 3.509858235623772478e-03
 5.804526126537121883e-03
 8.033507372440204172e-03
 1.017465456001863736e-02
 1.220948667377178172e-02
 1.412365858081642347e-02
 1.590711750280031367e-02
 1.755397753710555286e-02
 1.906216886804101840e-02
 2.043293103079390008e-02
 2.167022039043541362e-02
 2.278009383341125446e-02
 2.377011727520939033e-02
 2.464883244698520826e-02
 2.542530115496973234e-02
 2.610873437865406793e-02
 2.670820481779082739e-02
 2.723243576491696238e-02
 2.768965602259105402e-02
 2.808750939305789535e-02
 2.843300742986169111e-02
 2.873251512917840422e-02
 2.899176064707569694e-02
 2.921586167218744728e-02
 2.940936257944270008e-02
 2.957627783710220504e-02
 2.972013829020353839e-02
 2.984403788890493264e-02
 2.995067918200366996e-02
 1.174540262590806263e-03
 3.509858235623772478e-03
 5.804526126537120148e-03
 8.033507372440204172e-03
 1.017465456001863736e-02
 1.220948667377178172e-02
 1.412365858081642347e-02
 1.590711750280031367e-02
 1.755397753710555286e-02
 1.906216886804101840e-02
 2.043293103079389661e-02
 2.167022039043541709e-02
 2.278009383341125446e-02
 2.377011727520939033e-02
 2.464883244698520826e-02
 2.542530115496973234e-02
 2.610873437865406793e-02
 2.670820481779082739e-02
 2.723243576491696238e-02
 2.768965602259105402e-02
 2.808750939305789188e-02
 2.843300742986169111e-02
 2.873251512917840422e-02
 2.899176064707569694e-02
 2.921586167218744728e-02
 2.940936257944270008e-02
 2.957627783710220504e-02
 2.972013829020354186e-02
 2.984403788890493264e-02
 2.995067918200366996e-02
 1.174540262590806263e-03
 3.509858235623772478e-03
 5.804526126537121883e-03
 8.033507372440204172e-03
 1.017465456001863736e-02
 1.220948667377178172e-02
 1.412365858081642347e-02
 1.590711750280031367e-02
 1.755397753710555286e-02
 1.906216886804101840e-02
 2.043293103079390008e-02
 2.167022039043541709e-02
 2.278009383341125446e-02
 2.377011727520939380e-02
 2.464883244698521172e-02
 2.542530115496973234e-02
 2.610873437865406446e-02
 2.670820481779083433e-02
 2.723243576491696585e-02
 2.768965602259105402e-02
 2.808750939305789535e-02
 2.843300742986169111e-02
 2.873251512917840422e-02
 2.899176064707569694e-02
 2.921586167218744728e-02
 2.940936257944270008e-02
 2.957627783710220504e-02
 2.972013829020353839e-02
 2.984403788890493264e-02
 2.995067918200367343e-02
 1.174540262590806263e-03
 3.509858235623772044e-03
 5.804526126537120148e-03
 8.033507372440204172e-03
 1.017465456001863736e-02
 1.220948667377178172e-02
 1.412365858081642174e-02
 1.590711750280031367e-02
 1.755397753710555286e-02
 1.906216886804101840e-02
 2.043293103079390008e-02
 2.167022039043541709e-02
 2.278009383341125446e-02
 2.377011727520939033e-02
 2.464883244698521172e-02
 2.542530115496973234e-02
 2.610873437865406793e-02
 2.670820481779083086e-02
 2.723243576491696238e-02
 2.768965602259105402e-02
 2.808750939305789535e-02
 2.843300742986169111e-02
 2.873251512917840422e-02
 2.899176064707569694e-02
 2.921586167218744728e-02
 2.940936257944270008e-02
 2.957627783710220504e-02
 2.972013829020353839e-02
 2.984403788890493264e-02
 2.995067918200367690e-02
 1.174540262590806263e-03
 3.509858235623771611e-03
 5.804526126537120148e-03
 8.033507372440204172e-03
 1.017465456001863736e-02
 1.220948667377177999e-02
 1.412365858081642174e-02
 1.590711750280031367e-02
 1.755397753710555286e-02
 1.906216886804101840e-02
 2.043293103079390355e-02
 2.167022039043541709e-02
 2.278009383341125099e-02
 2.377011727520939033e-02
 2.464883244698520826e-02
 2.542530115496973234e-02
 2.610873437865406446e-02
 2.670820481779082739e-02
 2.723243576491696238e-02
 2.768965602259105402e-02
 2.808750939305789535e-02
 2.843300742986169111e-02
 2.873251512917840422e-02
 2.899176064707569694e-02
 2.921586167218744728e-02
 2.940936257944270008e-02
 2.957627783710220504e-02
 2.972013829020353839e-02
 2.984403788890493611e-02
 2.995067918200367690e-02
 1.174540262590806263e-03
 3.509858235623772478e-03
 5.804526126537121883e-03
 8.033507372440204172e-03
 1.017465456001863736e-02
 1.220948667377178345e-02
 1.412365858081642347e-02
 1.590711750280031367e-02
 1.755397753710555286e-02
 1.906216886804101840e-02
 2.043293103079390008e-02
 2.167022039043541709e-02
 2.278009383341125446e-02
 2.377011727520939033e-02
 2.464883244698520826e-02
 2.542530115496972887e-02
 2.610873437865406793e-02
 2.670820481779083086e-02
 2.723243576491696238e-02
 2.768965602259105402e-02
 2.808750939305789535e-02
 2.843300742986169458e-02
 2.873251512917840422e-02
 2.899176064707569694e-02
 2.921586167218744728e-02
 2.940936257944270354e-02
 2.957627783710220504e-02
 2.972013829020354186e-02
 2.984403788890493264e-02
 2.995067918200367343e-02
 1.174540262590806263e-03
 3.509858235623772478e-03
 5.804526126537121883e-03
 8.033507372440205907e-03
 1.017465456001863736e-02
 1.220948667377178345e-02
 1.412365858081642174e-02
 1.590711750280031367e-02
 1.755397753710555286e-02
 1.906216886804101840e-02
 2.043293103079390355e-02
 2.167022039043542056e-02
 2.278009383341125793e-02
 2.377011727520939380e-02
 2.464883244698521172e-02
 2.542530115496973234e-02
 2.610873437865406793e-02
 2.670820481779083433e-02
 2.723243576491696238e-02
 2.768965602259105402e-02
 2.808750939305789882e-02
 2.843300742986169805e-02
 2.873251512917840422e-02
 2.899176064707569694e-02
 2.921586167218744728e-02
 2.940936257944270008e-02
 2.957627783710220504e-02
 2.972013829020354186e-02
 2.984403788890493611e-02
 2.995067918200367690e-02
 1.174540262590806263e-03
 3.509858235623772478e-03
 5.804526126537121883e-03
 8.033507372440204172e-03
 1.017465456001863736e-02
 1.220948667377178345e-02
 1.412365858081642347e-02
 1.590711750280031367e-02
 1.755397753710555286e-02
 1.906216886804101840e-02
 2.043293103079390355e-02
 2.167022039043541709e-02
 2.278009383341125793e-02
 2.377011727520939727e-02
 2.464883244698521519e-02
 2.542530115496973581e-02
 2.610873437865406793e-02
 2.670820481779083086e-02
 2.723243576491696238e-02
 2.768965602259105402e-02
 2.808750939305789882e-02
 2.843300742986169458e-02
 2.873251512917840422e-02
 2.899176064707569694e-02
 2.921586167218744728e-02
 2.940936257944270008e-02
 2.957627783710220504e-02
 2.972013829020354186e-02
 2.984403788890493958e-02
 2.995067918200367690e-02
 1.174540262590806480e-03
 3.509858235623772478e-03
 5.804526126537121883e-03
 8.033507372440205907e-03
 1.017465456001863736e-02
 1.220948667377178345e-02
 1.412365858081642347e-02
 1.590711750280031367e-02
 1.755397753710555286e-02
 1.906216886804101840e-02
 2.043293103079390355e-02
 2.167022039043541709e-02
 2.278009383341125793e-02
 2.377011727520939727e-02
 2.464883244698521172e-02